
                                 *****************
                                 * O   R   C   A *
                                 *****************

                                            #,                                       
                                            ###                                      
                                            ####                                     
                                            #####                                    
                                            ######                                   
                                           ########,                                 
                                     ,,################,,,,,                         
                               ,,#################################,,                 
                          ,,##########################################,,             
                       ,#########################################, ''#####,          
                    ,#############################################,,   '####,        
                  ,##################################################,,,,####,       
                ,###########''''           ''''###############################       
              ,#####''   ,,,,##########,,,,          '''####'''          '####       
            ,##' ,,,,###########################,,,                        '##       
           ' ,,###''''                  '''############,,,                           
         ,,##''                                '''############,,,,        ,,,,,,###''
      ,#''                                            '''#######################'''  
     '                                                          ''''####''''         
             ,#######,   #######,   ,#######,      ##                                
            ,#'     '#,  ##    ##  ,#'     '#,    #''#        ######   ,####,        
            ##       ##  ##   ,#'  ##            #'  '#       #        #'  '#        
            ##       ##  #######   ##           ,######,      #####,   #    #        
            '#,     ,#'  ##    ##  '#,     ,#' ,#      #,         ##   #,  ,#        
             '#######'   ##     ##  '#######'  #'      '#     #####' # '####'        



                  #######################################################
                  #                        -***-                        #
                  #          Department of theory and spectroscopy      #
                  #    Directorship and core code : Frank Neese         #
                  #        Max Planck Institute fuer Kohlenforschung    #
                  #                Kaiser Wilhelm Platz 1               #
                  #                 D-45470 Muelheim/Ruhr               #
                  #                      Germany                        #
                  #                                                     #
                  #                  All rights reserved                #
                  #                        -***-                        #
                  #######################################################


                         Program Version 5.0.1 -  RELEASE  -


 With contributions from (in alphabetic order):
   Daniel Aravena         : Magnetic Suceptibility
   Michael Atanasov       : Ab Initio Ligand Field Theory (pilot matlab implementation)
   Alexander A. Auer      : GIAO ZORA, VPT2 properties, NMR spectrum
   Ute Becker             : Parallelization
   Giovanni Bistoni       : ED, misc. LED, open-shell LED, HFLD
   Martin Brehm           : Molecular dynamics
   Dmytro Bykov           : SCF Hessian
   Vijay G. Chilkuri      : MRCI spin determinant printing, contributions to CSF-ICE
   Dipayan Datta          : RHF DLPNO-CCSD density
   Achintya Kumar Dutta   : EOM-CC, STEOM-CC
   Dmitry Ganyushin       : Spin-Orbit,Spin-Spin,Magnetic field MRCI
   Miquel Garcia          : C-PCM and meta-GGA Hessian, CC/C-PCM, Gaussian charge scheme
   Yang Guo               : DLPNO-NEVPT2, F12-NEVPT2, CIM, IAO-localization
   Andreas Hansen         : Spin unrestricted coupled pair/coupled cluster methods
   Benjamin Helmich-Paris : MC-RPA, TRAH-SCF, COSX integrals
   Lee Huntington         : MR-EOM, pCC
   Robert Izsak           : Overlap fitted RIJCOSX, COSX-SCS-MP3, EOM
   Marcus Kettner         : VPT2
   Christian Kollmar      : KDIIS, OOCD, Brueckner-CCSD(T), CCSD density, CASPT2, CASPT2-K
   Simone Kossmann        : Meta GGA functionals, TD-DFT gradient, OOMP2, MP2 Hessian
   Martin Krupicka        : Initial AUTO-CI
   Lucas Lang             : DCDCAS
   Marvin Lechner         : AUTO-CI (C++ implementation), FIC-MRCC
   Dagmar Lenk            : GEPOL surface, SMD
   Dimitrios Liakos       : Extrapolation schemes; Compound Job, initial MDCI parallelization
   Dimitrios Manganas     : Further ROCIS development; embedding schemes
   Dimitrios Pantazis     : SARC Basis sets
   Anastasios Papadopoulos: AUTO-CI, single reference methods and gradients
   Taras Petrenko         : DFT Hessian,TD-DFT gradient, ASA, ECA, R-Raman, ABS, FL, XAS/XES, NRVS
   Peter Pinski           : DLPNO-MP2, DLPNO-MP2 Gradient
   Christoph Reimann      : Effective Core Potentials
   Marius Retegan         : Local ZFS, SOC
   Christoph Riplinger    : Optimizer, TS searches, QM/MM, DLPNO-CCSD(T), (RO)-DLPNO pert. Triples
   Tobias Risthaus        : Range-separated hybrids, TD-DFT gradient, RPA, STAB
   Michael Roemelt        : Original ROCIS implementation
   Masaaki Saitow         : Open-shell DLPNO-CCSD energy and density
   Barbara Sandhoefer     : DKH picture change effects
   Avijit Sen             : IP-ROCIS
   Kantharuban Sivalingam : CASSCF convergence, NEVPT2, FIC-MRCI
   Bernardo de Souza      : ESD, SOC TD-DFT
   Georgi Stoychev        : AutoAux, RI-MP2 NMR, DLPNO-MP2 response
   Willem Van den Heuvel  : Paramagnetic NMR
   Boris Wezisla          : Elementary symmetry handling
   Frank Wennmohs         : Technical directorship


 We gratefully acknowledge several colleagues who have allowed us to
 interface, adapt or use parts of their codes:
   Stefan Grimme, W. Hujo, H. Kruse, P. Pracht,  : VdW corrections, initial TS optimization,
                  C. Bannwarth, S. Ehlert          DFT functionals, gCP, sTDA/sTD-DF
   Ed Valeev, F. Pavosevic, A. Kumar             : LibInt (2-el integral package), F12 methods
   Garnet Chan, S. Sharma, J. Yang, R. Olivares  : DMRG
   Ulf Ekstrom                                   : XCFun DFT Library
   Mihaly Kallay                                 : mrcc  (arbitrary order and MRCC methods)
   Jiri Pittner, Ondrej Demel                    : Mk-CCSD
   Frank Weinhold                                : gennbo (NPA and NBO analysis)
   Christopher J. Cramer and Donald G. Truhlar   : smd solvation model
   Lars Goerigk                                  : TD-DFT with DH, B97 family of functionals
   V. Asgeirsson, H. Jonsson                     : NEB implementation
   FAccTs GmbH                                   : IRC, NEB, NEB-TS, DLPNO-Multilevel, CI-OPT
                                                   MM, QMMM, 2- and 3-layer-ONIOM, Crystal-QMMM,
                                                   LR-CPCM, SF, NACMEs, symmetry and pop. for TD-DFT,
                                                   nearIR, NL-DFT gradient (VV10), updates on ESD,
                                                   ML-optimized integration grids
   S Lehtola, MJT Oliveira, MAL Marques          : LibXC Library
   Liviu Ungur et al                             : ANISO software


 Your calculation uses the libint2 library for the computation of 2-el integrals
 For citations please refer to: http://libint.valeyev.net

 Your ORCA version has been built with support for libXC version: 5.1.0
 For citations please refer to: https://tddft.org/programs/libxc/

 This ORCA versions uses:
   CBLAS   interface :  Fast vector & matrix operations
   LAPACKE interface :  Fast linear algebra routines
   SCALAPACK package :  Parallel linear algebra routines
   Shared memory     :  Shared parallel matrices
   BLAS/LAPACK       :  OpenBLAS 0.3.15  USE64BITINT DYNAMIC_ARCH NO_AFFINITY SkylakeX SINGLE_THREADED
        Core in use  :  SkylakeX
   Copyright (c) 2011-2014, The OpenBLAS Project


Your calculation utilizes the geometrical counterpoise correction gCP
Please cite in your paper:
H.Kruse, S. Grimme J.Chem.Phys., 136, (2012), 154101 
   

Your calculation utilizes the atom-pairwise dispersion correction
based on tight binding partial charges (D4)
Cite in your paper:
E.Caldeweyher, C.Bannwarth, S.Grimme, J.Chem.Phys., (2017), 147, 034112.
E.Caldeweyher, S.Ehlert, A.Hansen, H.Neugebauer, S.Grimme, J.Chem.Phys., (2018), in progress.
   

Your calculation utilizes the SMD solvation module
Please cite in your paper:
A.V. Marenich, C.J. Cramer, D.G. Truhlar J. Phys. Chem. B, 113, (2009), 6378 

================================================================================

----- Orbital basis set information -----
Your calculation utilizes the basis: def2-mTZVPP
   Stefan Grimme, Andreas Hansen, Sebastian Ehlert, and Jan-Michael Mewes 
   J. Chem. Phys. 154, 000000 (2021). DOI: 10.1063/5.0040021

----- AuxJ basis set information -----
Your calculation utilizes the basis: def2-mTZVPP/J
   Stefan Grimme, Andreas Hansen, Sebastian Ehlert, and Jan-Michael Mewes 
   J. Chem. Phys. 154, 000000 (2021). DOI: 10.1063/5.0040021

================================================================================
                                        WARNINGS
                       Please study these warnings very carefully!
================================================================================

Using LibXC functional ID 497 : Re-regularized SCAN exchange by Furness et al
[ 1]  J. W. Furness, A. D. Kaplan, J. Ning, J. P. Perdew, and J. Sun, J. Phys. Chem. Lett. 11, 8208 (2020)
[ 2]  J. W. Furness, A. D. Kaplan, J. Ning, J. P. Perdew, and J. Sun, J. Phys. Chem. Lett. 11, 9248 (2020)
Using LibXC functional ID 498 : Re-regularized SCAN correlation by Furness et al
[ 1]  J. W. Furness, A. D. Kaplan, J. Ning, J. P. Perdew, and J. Sun, J. Phys. Chem. Lett. 11, 8208 (2020)
[ 2]  J. W. Furness, A. D. Kaplan, J. Ning, J. P. Perdew, and J. Sun, J. Phys. Chem. Lett. 11, 9248 (2020)
Using LibXC functional ID 497 : Re-regularized SCAN exchange by Furness et al
[ 1]  J. W. Furness, A. D. Kaplan, J. Ning, J. P. Perdew, and J. Sun, J. Phys. Chem. Lett. 11, 8208 (2020)
[ 2]  J. W. Furness, A. D. Kaplan, J. Ning, J. P. Perdew, and J. Sun, J. Phys. Chem. Lett. 11, 9248 (2020)
Using LibXC functional ID 498 : Re-regularized SCAN correlation by Furness et al
[ 1]  J. W. Furness, A. D. Kaplan, J. Ning, J. P. Perdew, and J. Sun, J. Phys. Chem. Lett. 11, 8208 (2020)
[ 2]  J. W. Furness, A. D. Kaplan, J. Ning, J. P. Perdew, and J. Sun, J. Phys. Chem. Lett. 11, 9248 (2020)

INFO   : the flag for use of the SHARK integral package has been found!

================================================================================
                                       INPUT FILE
================================================================================
NAME = opt_1.inp
|  1> ! r2SCAN-3c opt tightSCF noautostart miniprint nopop
|  2> %maxcore  7000
|  3> %pal nprocs   48 end
|  4> %cpcm
|  5> smd true
|  6> SMDsolvent "water"
|  7> end
|  8> * xyz   0   1
|  9> C 4.355 1.363 1.879
| 10> C 3.108 1.614 2.439
| 11> C 1.960 1.209 1.794
| 12> C 2.016 0.527 0.572
| 13> C 3.287 0.275 -0.002
| 14> C 4.436 0.711 0.669
| 15> C 3.408 -0.397 -1.305
| 16> O 2.523 -0.406 -2.149
| 17> O 4.548 -1.032 -1.580
| 18> N 0.877 0.153 -0.091
| 19> C -0.376 -0.106 0.420
| 20> C -0.604 -0.486 1.747
| 21> C -1.884 -0.751 2.193
| 22> C -2.970 -0.662 1.338
| 23> C -2.742 -0.318 0.012
| 24> C -1.465 -0.047 -0.454
| 25> C -3.873 -0.258 -0.965
| 26> F -3.875 -1.304 -1.827
| 27> F -5.090 -0.262 -0.394
| 28> F -3.840 0.842 -1.748
| 29> H 5.252 1.695 2.376
| 30> H 3.033 2.149 3.372
| 31> H 0.997 1.462 2.205
| 32> H 5.406 0.582 0.213
| 33> H 5.169 -1.068 -0.830
| 34> H 1.002 -0.010 -1.086
| 35> H 0.229 -0.606 2.420
| 36> H -2.040 -1.043 3.219
| 37> H -3.970 -0.866 1.683
| 38> H -1.311 0.211 -1.490
| 39> *
| 40> 
| 41>                          ****END OF INPUT****
================================================================================

                       *****************************
                       * Geometry Optimization Run *
                       *****************************

Geometry optimization settings:
Update method            Update   .... BFGS
Choice of coordinates    CoordSys .... Z-matrix Internals
Initial Hessian          InHess   .... Almoef's Model

Convergence Tolerances:
Energy Change            TolE     ....  5.0000e-06 Eh
Max. Gradient            TolMAXG  ....  3.0000e-04 Eh/bohr
RMS Gradient             TolRMSG  ....  1.0000e-04 Eh/bohr
Max. Displacement        TolMAXD  ....  4.0000e-03 bohr
RMS Displacement         TolRMSD  ....  2.0000e-03 bohr
Strict Convergence                ....  False
------------------------------------------------------------------------------
                        ORCA OPTIMIZATION COORDINATE SETUP
------------------------------------------------------------------------------

The optimization will be done in new redundant internal coordinates
Making redundant internal coordinates   ...  (new redundants) done
Evaluating the initial hessian          ...  (Almloef) done
Evaluating the coordinates              ...  done
Calculating the B-matrix                .... done
Calculating the G-matrix                .... done
Diagonalizing the G-matrix              .... done
Small eigenvalue found = 4.302e-03
Small eigenvalue found = 1.645e-02
Small eigenvalue found = 2.269e-02
Small eigenvalue found = 2.372e-02
The first mode is                       ....   64
The number of degrees of freedom        ....   84

    -----------------------------------------------------------------
                    Redundant Internal Coordinates


    -----------------------------------------------------------------
         Definition                    Initial Value    Approx d2E/dq
    -----------------------------------------------------------------
      1. B(C   1,C   0)                  1.3898         0.625201   
      2. B(C   2,C   1)                  1.3777         0.653766   
      3. B(C   3,C   2)                  1.4006         0.601042   
      4. B(C   4,C   3)                  1.4172         0.565408   
      5. B(C   5,C   4)                  1.4002         0.601835   
      6. B(C   5,C   0)                  1.3769         0.655677   
      7. B(C   6,C   4)                  1.4711         0.463878   
      8. B(O   7,C   6)                  1.2230         1.033642   
      9. B(O   8,C   6)                  1.3336         0.688464   
     10. B(N   9,C   3)                  1.3700         0.602368   
     11. B(C  10,N   9)                  1.3778         0.585343   
     12. B(C  11,C  10)                  1.3990         0.604388   
     13. B(C  12,C  11)                  1.3811         0.645473   
     14. B(C  13,C  12)                  1.3850         0.636280   
     15. B(C  14,C  13)                  1.3887         0.627698   
     16. B(C  15,C  14)                  1.3861         0.633768   
     17. B(C  15,C  10)                  1.3976         0.607600   
     18. B(C  16,C  14)                  1.4958         0.423652   
     19. B(F  17,C  16)                  1.3554         0.590387   
     20. B(F  18,C  16)                  1.3443         0.615001   
     21. B(F  19,C  16)                  1.3506         0.600887   
     22. B(H  20,C   0)                  1.0779         0.376485   
     23. B(H  21,C   1)                  1.0781         0.376166   
     24. B(H  22,C   2)                  1.0772         0.377476   
     25. B(H  23,C   5)                  1.0796         0.374162   
     26. B(H  24,O   8)                  0.9744         0.493182   
     27. B(H  25,N   9)                  1.0160         0.423303   
     28. B(H  26,C  11)                  1.0776         0.376885   
     29. B(H  27,C  12)                  1.0781         0.376206   
     30. B(H  28,C  13)                  1.0773         0.377256   
     31. B(H  29,C  15)                  1.0787         0.375374   
     32. A(C   5,C   0,H  20)          120.1393         0.358977   
     33. A(C   1,C   0,H  20)          120.3482         0.356085   
     34. A(C   1,C   0,C   5)          119.4985         0.439125   
     35. A(C   0,C   1,C   2)          120.3929         0.438894   
     36. A(C   2,C   1,H  21)          119.5431         0.358747   
     37. A(C   0,C   1,H  21)          120.0483         0.356034   
     38. A(C   1,C   2,C   3)          121.2203         0.435787   
     39. A(C   1,C   2,H  22)          119.8207         0.358960   
     40. A(C   3,C   2,H  22)          118.8835         0.353871   
     41. A(C   2,C   3,C   4)          118.4140         0.424575   
     42. A(C   4,C   3,N   9)          120.0723         0.421980   
     43. A(C   2,C   3,N   9)          121.4635         0.426618   
     44. A(C   3,C   4,C   5)          119.1099         0.424675   
     45. A(C   5,C   4,C   6)          119.9483         0.409969   
     46. A(C   3,C   4,C   6)          120.9140         0.405465   
     47. A(C   0,C   5,C   4)          121.3537         0.436119   
     48. A(C   4,C   5,H  23)          119.8472         0.353421   
     49. A(C   0,C   5,H  23)          118.7272         0.358600   
     50. A(C   4,C   6,O   8)          118.0655         0.417166   
     51. A(O   7,C   6,O   8)          118.2155         0.479179   
     52. A(C   4,C   6,O   7)          123.7190         0.448782   
     53. A(C   6,O   8,H  24)          113.8082         0.373436   
     54. A(C   3,N   9,C  10)          128.8995         0.421840   
     55. A(C  10,N   9,H  25)          116.4212         0.353860   
     56. A(C   3,N   9,H  25)          114.5490         0.355584   
     57. A(N   9,C  10,C  11)          123.4402         0.424856   
     58. A(C  11,C  10,C  15)          118.5314         0.430515   
     59. A(N   9,C  10,C  15)          117.9539         0.425259   
     60. A(C  12,C  11,H  26)          119.5620         0.358085   
     61. A(C  10,C  11,H  26)          119.7784         0.354110   
     62. A(C  10,C  11,C  12)          120.6268         0.435221   
     63. A(C  13,C  12,H  27)          119.4346         0.357104   
     64. A(C  11,C  12,H  27)          119.5638         0.357976   
     65. A(C  11,C  12,C  13)          120.9976         0.439274   
     66. A(C  14,C  13,H  28)          120.3358         0.356450   
     67. A(C  12,C  13,H  28)          121.1953         0.357273   
     68. A(C  12,C  13,C  14)          118.4641         0.437067   
     69. A(C  15,C  14,C  16)          117.9809         0.407148   
     70. A(C  13,C  14,C  16)          120.6284         0.406456   
     71. A(C  13,C  14,C  15)          121.3782         0.436756   
     72. A(C  14,C  15,H  29)          120.0777         0.356730   
     73. A(C  10,C  15,H  29)          119.9645         0.354187   
     74. A(C  10,C  15,C  14)          119.9577         0.434204   
     75. A(F  18,C  16,F  19)          105.7112         0.421650   
     76. A(F  17,C  16,F  19)          105.0619         0.418589   
     77. A(C  14,C  16,F  19)          113.1329         0.399007   
     78. A(F  17,C  16,F  18)          105.4560         0.420325   
     79. A(C  14,C  16,F  18)          114.0148         0.400640   
     80. A(C  14,C  16,F  17)          112.6785         0.397773   
     81. D(C   2,C   1,C   0,H  20)    178.9543         0.027075   
     82. D(H  21,C   1,C   0,H  20)      0.4071         0.027075   
     83. D(C   2,C   1,C   0,C   5)      0.3162         0.027075   
     84. D(H  21,C   1,C   0,C   5)   -178.2310         0.027075   
     85. D(H  22,C   2,C   1,C   0)   -176.1868         0.029784   
     86. D(H  22,C   2,C   1,H  21)      2.3677         0.029784   
     87. D(C   3,C   2,C   1,C   0)      0.6185         0.029784   
     88. D(C   3,C   2,C   1,H  21)    179.1730         0.029784   
     89. D(N   9,C   3,C   2,H  22)     -1.4234         0.024908   
     90. D(N   9,C   3,C   2,C   1)   -178.2580         0.024908   
     91. D(C   4,C   3,C   2,H  22)    176.0024         0.024908   
     92. D(C   4,C   3,C   2,C   1)     -0.8322         0.024908   
     93. D(C   6,C   4,C   3,C   2)   -177.9491         0.021915   
     94. D(C   5,C   4,C   3,N   9)    177.5962         0.021915   
     95. D(C   5,C   4,C   3,C   2)      0.1334         0.021915   
     96. D(C   6,C   4,C   3,N   9)     -0.4863         0.021915   
     97. D(H  23,C   5,C   4,C   6)      2.0184         0.024978   
     98. D(C   0,C   5,C   4,C   6)    178.8953         0.024978   
     99. D(C   0,C   5,C   4,C   3)      0.7939         0.024978   
    100. D(H  23,C   5,C   0,H  20)     -2.7549         0.029971   
    101. D(H  23,C   5,C   0,C   1)    175.8861         0.029971   
    102. D(H  23,C   5,C   4,C   3)   -176.0829         0.024978   
    103. D(C   4,C   5,C   0,H  20)   -179.6658         0.029971   
    104. D(C   4,C   5,C   0,C   1)     -1.0248         0.029971   
    105. D(O   8,C   6,C   4,C   5)     25.6461         0.014656   
    106. D(O   8,C   6,C   4,C   3)   -156.2874         0.014656   
    107. D(O   7,C   6,C   4,C   5)   -154.3556         0.014656   
    108. D(O   7,C   6,C   4,C   3)     23.7109         0.014656   
    109. D(H  24,O   8,C   6,O   7)   -173.6682         0.035384   
    110. D(H  24,O   8,C   6,C   4)      6.3302         0.035384   
    111. D(C  10,N   9,C   3,C   2)    -26.0873         0.029254   
    112. D(H  25,N   9,C   3,C   4)    -19.1245         0.029254   
    113. D(H  25,N   9,C   3,C   2)    158.2592         0.029254   
    114. D(C  10,N   9,C   3,C   4)    156.5289         0.029254   
    115. D(C  15,C  10,N   9,H  25)    -24.7513         0.027514   
    116. D(C  15,C  10,N   9,C   3)    159.6636         0.027514   
    117. D(C  11,C  10,N   9,H  25)    152.0590         0.027514   
    118. D(C  11,C  10,N   9,C   3)    -23.5261         0.027514   
    119. D(H  26,C  11,C  10,C  15)    175.6735         0.025202   
    120. D(H  26,C  11,C  10,N   9)     -1.1194         0.025202   
    121. D(C  12,C  11,C  10,C  15)     -2.2373         0.025202   
    122. D(C  12,C  11,C  10,N   9)   -179.0303         0.025202   
    123. D(H  27,C  12,C  11,H  26)      2.0548         0.028981   
    124. D(H  27,C  12,C  11,C  10)    179.9702         0.028981   
    125. D(C  13,C  12,C  11,H  26)   -177.2115         0.028981   
    126. D(C  13,C  12,C  11,C  10)      0.7038         0.028981   
    127. D(H  28,C  13,C  12,H  27)      0.8618         0.028107   
    128. D(H  28,C  13,C  12,C  11)   -179.8709         0.028107   
    129. D(C  14,C  13,C  12,H  27)   -178.3461         0.028107   
    130. D(C  14,C  13,C  12,C  11)      0.9212         0.028107   
    131. D(C  16,C  14,C  13,H  28)     -1.5202         0.027306   
    132. D(C  16,C  14,C  13,C  12)    177.6947         0.027306   
    133. D(C  15,C  14,C  13,H  28)    179.7930         0.027306   
    134. D(C  15,C  14,C  13,C  12)     -0.9920         0.027306   
    135. D(H  29,C  15,C  14,C  16)      0.8209         0.027871   
    136. D(H  29,C  15,C  14,C  13)    179.5412         0.027871   
    137. D(C  10,C  15,C  14,C  16)   -179.2831         0.027871   
    138. D(C  10,C  15,C  14,C  13)     -0.5627         0.027871   
    139. D(H  29,C  15,C  10,C  11)   -177.9475         0.025486   
    140. D(H  29,C  15,C  10,N   9)     -0.9770         0.025486   
    141. D(C  14,C  15,C  10,C  11)      2.1563         0.025486   
    142. D(C  14,C  15,C  10,N   9)    179.1268         0.025486   
    143. D(F  17,C  16,C  14,C  13)   -106.0419         0.013265   
    144. D(F  19,C  16,C  14,C  15)    -46.3097         0.013265   
    145. D(F  19,C  16,C  14,C  13)    134.9599         0.013265   
    146. D(F  18,C  16,C  14,C  15)   -167.1541         0.013265   
    147. D(F  18,C  16,C  14,C  13)     14.1154         0.013265   
    148. D(F  17,C  16,C  14,C  15)     72.6886         0.013265   
    -----------------------------------------------------------------

Number of atoms                         .... 30
Number of degrees of freedom            .... 148

         *************************************************************
         *                GEOMETRY OPTIMIZATION CYCLE   1            *
         *************************************************************
---------------------------------
CARTESIAN COORDINATES (ANGSTROEM)
---------------------------------
  C      4.355000    1.363000    1.879000
  C      3.108000    1.614000    2.439000
  C      1.960000    1.209000    1.794000
  C      2.016000    0.527000    0.572000
  C      3.287000    0.275000   -0.002000
  C      4.436000    0.711000    0.669000
  C      3.408000   -0.397000   -1.305000
  O      2.523000   -0.406000   -2.149000
  O      4.548000   -1.032000   -1.580000
  N      0.877000    0.153000   -0.091000
  C     -0.376000   -0.106000    0.420000
  C     -0.604000   -0.486000    1.747000
  C     -1.884000   -0.751000    2.193000
  C     -2.970000   -0.662000    1.338000
  C     -2.742000   -0.318000    0.012000
  C     -1.465000   -0.047000   -0.454000
  C     -3.873000   -0.258000   -0.965000
  F     -3.875000   -1.304000   -1.827000
  F     -5.090000   -0.262000   -0.394000
  F     -3.840000    0.842000   -1.748000
  H      5.252000    1.695000    2.376000
  H      3.033000    2.149000    3.372000
  H      0.997000    1.462000    2.205000
  H      5.406000    0.582000    0.213000
  H      5.169000   -1.068000   -0.830000
  H      1.002000   -0.010000   -1.086000
  H      0.229000   -0.606000    2.420000
  H     -2.040000   -1.043000    3.219000
  H     -3.970000   -0.866000    1.683000
  H     -1.311000    0.211000   -1.490000

----------------------------
CARTESIAN COORDINATES (A.U.)
----------------------------
  NO LB      ZA    FRAG     MASS         X           Y           Z
   0 C     6.0000    0    12.011    8.229757    2.575697    3.550795
   1 C     6.0000    0    12.011    5.873269    3.050018    4.609042
   2 C     6.0000    0    12.011    3.703863    2.284679    3.390169
   3 C     6.0000    0    12.011    3.809688    0.995886    1.080923
   4 C     6.0000    0    12.011    6.211530    0.519675   -0.003779
   5 C     6.0000    0    12.011    8.382825    1.343595    1.264227
   6 C     6.0000    0    12.011    6.440187   -0.750221   -2.466093
   7 O     8.0000    0    15.999    4.767779   -0.767229   -4.061021
   8 O     8.0000    0    15.999    8.594474   -1.950197   -2.985767
   9 N     7.0000    0    14.007    1.657290    0.289128   -0.171965
  10 C     6.0000    0    12.011   -0.710537   -0.200311    0.793685
  11 C     6.0000    0    12.011   -1.141395   -0.918407    3.301352
  12 C     6.0000    0    12.011   -3.560244   -1.419184    4.144169
  13 C     6.0000    0    12.011   -5.612487   -1.250999    2.528454
  14 C     6.0000    0    12.011   -5.181629   -0.600933    0.022677
  15 C     6.0000    0    12.011   -2.768449   -0.088817   -0.857936
  16 C     6.0000    0    12.011   -7.318909   -0.487549   -1.823586
  17 F     9.0000    0    18.998   -7.322689   -2.464203   -3.452530
  18 F     9.0000    0    18.998   -9.618706   -0.495108   -0.744552
  19 F     9.0000    0    18.998   -7.256548    1.591149   -3.303241
  20 H     1.0000    0     1.008    9.924842    3.203086    4.489989
  21 H     1.0000    0     1.008    5.731539    4.061021    6.372157
  22 H     1.0000    0     1.008    1.884057    2.762780    4.166846
  23 H     1.0000    0     1.008   10.215859    1.099821    0.402512
  24 H     1.0000    0     1.008    9.767994   -2.018228   -1.568473
  25 H     1.0000    0     1.008    1.893506   -0.018897   -2.052243
  26 H     1.0000    0     1.008    0.432747   -1.145174    4.573137
  27 H     1.0000    0     1.008   -3.855041   -1.970984    6.083028
  28 H     1.0000    0     1.008   -7.502213   -1.636503    3.180409
  29 H     1.0000    0     1.008   -2.477431    0.398732   -2.815692



           ************************************************************
           *        Program running with 48 parallel MPI-processes    *
           *              working on a common directory               *
           ************************************************************
------------------------------------------------------------------------------
                   ___                                                        
                  /   \      - P O W E R E D   B Y -                         
                 /     \                                                     
                 |  |  |   _    _      __       _____    __    __             
                 |  |  |  | |  | |    /  \     |  _  \  |  |  /  |          
                  \  \/   | |  | |   /    \    | | | |  |  | /  /          
                 / \  \   | |__| |  /  /\  \   | |_| |  |  |/  /          
                |  |  |   |  __  | /  /__\  \  |    /   |      \           
                |  |  |   | |  | | |   __   |  |    \   |  |\   \          
                \     /   | |  | | |  |  |  |  | |\  \  |  | \   \       
                 \___/    |_|  |_| |__|  |__|  |_| \__\ |__|  \__/        
                                                                              
                      - O R C A' S   B I G   F R I E N D -                    
                                      &                                       
                       - I N T E G R A L  F E E D E R -                       
                                                                              
 v1 FN, 2020, v2 2021                                                         
------------------------------------------------------------------------------


Reading SHARK input file opt_1.SHARKINP.tmp ... ok
----------------------
SHARK INTEGRAL PACKAGE
----------------------

Number of atoms                             ...     30
Number of basis functions                   ...    460
Number of shells                            ...    216
Maximum angular momentum                    ...      2
Integral batch strategy                     ... SHARK/LIBINT Hybrid
RI-J (if used) integral strategy            ... SPLIT-RIJ (Revised 2003 algorithm where possible)
Printlevel                                  ...      1
Contraction scheme used                     ... SEGMENTED contraction
Coulomb Range Separation                    ... NOT USED
Exchange Range Separation                   ... NOT USED
Finite Nucleus Model                        ... NOT USED
Auxiliary Coulomb fitting basis             ... AVAILABLE
   # of basis functions in Aux-J            ...    725
   # of shells in Aux-J                     ...    293
   Maximum angular momentum in Aux-J        ...      2
Auxiliary J/K fitting basis                 ... NOT available
Auxiliary Correlation fitting basis         ... NOT available
Auxiliary 'external' fitting basis          ... NOT available
Integral threshold                          ...     2.500000e-11
Primitive cut-off                           ...     2.500000e-12
Primitive pair pre-selection threshold      ...     2.500000e-12

Calculating pre-screening integrals         ... done (  0.1 sec) Dimension = 216
Organizing shell pair data                  ... done (  0.1 sec)
Shell pair information
Total number of shell pairs                 ...     23436
Shell pairs after pre-screening             ...     16354
Total number of primitive shell pairs       ...     87206
Primitive shell pairs kept                  ...     38951
          la=0 lb=0:   4764 shell pairs
          la=1 lb=0:   6084 shell pairs
          la=1 lb=1:   1946 shell pairs
          la=2 lb=0:   2027 shell pairs
          la=2 lb=1:   1304 shell pairs
          la=2 lb=2:    229 shell pairs

Calculating one electron integrals          ... done (  0.0 sec)
Calculating RI/J V-Matrix + Cholesky decomp.... done (  0.0 sec)
Calculating Nuclear repulsion               ... done (  0.0 sec) ENN=   1490.767199065514 Eh

SHARK setup successfully completed in   0.3 seconds

Maximum memory used throughout the entire GTOINT-calculation: 25.0 MB


           ************************************************************
           *        Program running with 48 parallel MPI-processes    *
           *              working on a common directory               *
           ************************************************************

Diagonalization of the overlap matrix:
Smallest eigenvalue                        ... 2.128e-05
Time for diagonalization                   ...    0.029 sec
Threshold for overlap eigenvalues          ... 1.000e-08
Number of eigenvalues below threshold      ... 0
Time for construction of square roots      ...    0.036 sec
Total time needed                          ...    0.067 sec

Time for model grid setup =    0.270 sec

Loading Hartree-Fock densities                     ... done
Calculating cut-offs                               ... done
Initializing the effective Hamiltonian             ... done
Setting up the integral package (SHARK)            ... done
Starting the Coulomb interaction                   ... done (   0.1 sec)
Reading the grid                                   ... done
Mapping shells                                     ... done
Starting the XC term evaluation                    ... done (   0.1 sec)
  promolecular density results
     # of electrons  =    143.997952010
     EX              =   -127.518816759
     EC              =     -4.912440714
     EX+EC           =   -132.431257473
Transforming the Hamiltonian                       ... done (   0.0 sec)
Diagonalizing the Hamiltonian                      ... done (   0.0 sec)
Back transforming the eigenvectors                 ... done (   0.0 sec)
Now organizing SCF variables                       ... done
-------------------
DFT GRID GENERATION
-------------------

General Integration Accuracy     IntAcc      ... 4.388
Radial Grid Type                 RadialGrid  ... OptM3 with GC (2021)
Angular Grid (max. ang.)         AngularGrid ... 4 (Lebedev-302)
Angular grid pruning method      GridPruning ... 4 (adaptive)
Weight generation scheme         WeightScheme... Becke
Basis function cutoff            BFCut       ... 1.0000e-11
Integration weight cutoff        WCut        ... 1.0000e-14
Angular grids for H and He will be reduced by one unit
Partially contracted basis set               ... off
Rotationally invariant grid construction     ... off

Total number of grid points                  ...   152615
Total number of batches                      ...     2402
Average number of points per batch           ...       63
Average number of grid points per atom       ...     5087
Time for grid setup =    1.196 sec


--------------------
CPCM SOLVATION MODEL
--------------------
CPCM parameters:
  Epsilon                                         ...      78.3550
  Refrac                                          ...       1.3328
  Rsolv                                           ...       1.3000
  Surface type                                    ... GAUSSIAN VDW
  Epsilon function type                           ...         CPCM
Solvent:                                     ... WATER
SMD-CDS solvent descriptors:
  Soln                                       ...    1.3328
  Soln25                                     ...    1.3323
  Sola                                       ...    0.0000
  Solb                                       ...    0.0000
  Solg                                       ...    0.0000
  Solc                                       ...    0.0000
  Solh                                       ...    0.0000
Radii:
 Radius for C  used is    3.4960 Bohr (=   1.8500 Ang.)
 Radius for O  used is    2.8724 Bohr (=   1.5200 Ang.)
 Radius for N  used is    3.5716 Bohr (=   1.8900 Ang.)
 Radius for F  used is    3.2692 Bohr (=   1.7300 Ang.)
 Radius for H  used is    2.2677 Bohr (=   1.2000 Ang.)
Calculating surface                               ...        done! (  0.0s)
GEPOL surface points                              ...         1752
GEPOL Volume                                      ...    1729.1318
GEPOL Surface-area                                ...     985.5670
Calculating surface distance matrix               ...        done! (  0.0s)
Performing Cholesky decomposition & store         ...        done! (  0.3s)
Overall time for CPCM initialization              ...                 0.3s
--------------
SCF ITERATIONS
--------------
ITER       Energy         Delta-E        Max-DP      RMS-DP      [F,P]     Damp
               ***  Starting incremental Fock matrix formation  ***
  0  -1043.7587950278   0.000000000000 0.05086598  0.00130548  0.2651577 0.7000
  1  -1043.9564462364  -0.197651208509 0.03675846  0.00096671  0.1010036 0.7000
                               ***Turning on DIIS***
  2  -1044.0301237726  -0.073677536251 0.07772196  0.00172186  0.0339195 0.0000
  3  -1044.1514616556  -0.121337883027 0.04597104  0.00070917  0.0435380 0.0000
  4  -1044.1761423180  -0.024680662357 0.02171539  0.00029333  0.0169785 0.0000
  5  -1044.1779506819  -0.001808363932 0.00680028  0.00015107  0.0069876 0.0000
                      *** Initiating the SOSCF procedure ***
                           *** Shutting down DIIS ***
                      *** Re-Reading the Fockian *** 
                      *** Removing any level shift *** 
ITER      Energy       Delta-E        Grad      Rot      Max-DP    RMS-DP
  6  -1044.17806360  -0.0001129165  0.000313  0.000313  0.002468  0.000061
               *** Restarting incremental Fock matrix formation ***
  7  -1044.17807553  -0.0000119274  0.000247  0.001104  0.001429  0.000039
  8  -1044.17807177   0.0000037599  0.000502  0.000709  0.000526  0.000010
  9  -1044.17807791  -0.0000061482  0.000046  0.000129  0.000225  0.000005
 10  -1044.17807774   0.0000001778  0.000062  0.000082  0.000105  0.000002
 11  -1044.17807800  -0.0000002665  0.000007  0.000034  0.000110  0.000001
 12  -1044.17807800  -0.0000000002  0.000010  0.000023  0.000036  0.000001
                  ***Gradient check signals convergence***
              ***Rediagonalizing the Fockian in SOSCF/NRSCF***

               *****************************************************
               *                     SUCCESS                       *
               *           SCF CONVERGED AFTER  13 CYCLES          *
               *****************************************************


SMD CDS free energy correction energy :                 7.89397     Kcal/mol
Total Energy after SMD CDS correction =             -1044.165498145 Eh
Total Energy       :        -1044.16549814 Eh          -28413.18770 eV
  Last Energy change         ...    1.1274e-08  Tolerance :   1.0000e-08
  Last MAX-Density change    ...    6.0165e-05  Tolerance :   1.0000e-07
             **** THE GBW FILE WAS UPDATED (opt_1.gbw) ****
             **** DENSITY opt_1.scfp WAS UPDATED ****
             **** ENERGY FILE WAS UPDATED (opt_1.en.tmp) ****
             **** THE GBW FILE WAS UPDATED (opt_1.gbw) ****
             **** DENSITY opt_1.scfp WAS UPDATED ****
----------------
ORBITAL ENERGIES
----------------

  NO   OCC          E(Eh)            E(eV) 
   0   2.0000     -24.523398      -667.3156 
   1   2.0000     -24.520252      -667.2300 
   2   2.0000     -24.518181      -667.1736 
   3   2.0000     -19.006826      -517.2020 
   4   2.0000     -18.951545      -515.6978 
   5   2.0000     -14.194200      -386.2438 
   6   2.0000     -10.284557      -279.8570 
   7   2.0000     -10.177568      -276.9457 
   8   2.0000     -10.098945      -274.8063 
   9   2.0000     -10.092143      -274.6212 
  10   2.0000     -10.065755      -273.9031 
  11   2.0000     -10.059733      -273.7393 
  12   2.0000     -10.050942      -273.5000 
  13   2.0000     -10.048256      -273.4269 
  14   2.0000     -10.045190      -273.3435 
  15   2.0000     -10.043915      -273.3088 
  16   2.0000     -10.043005      -273.2841 
  17   2.0000     -10.041952      -273.2554 
  18   2.0000     -10.039518      -273.1892 
  19   2.0000     -10.034463      -273.0516 
  20   2.0000      -1.277930       -34.7742 
  21   2.0000      -1.189639       -32.3717 
  22   2.0000      -1.184824       -32.2407 
  23   2.0000      -1.081107       -29.4184 
  24   2.0000      -0.996196       -27.1079 
  25   2.0000      -0.938256       -25.5313 
  26   2.0000      -0.847266       -23.0553 
  27   2.0000      -0.827002       -22.5039 
  28   2.0000      -0.759157       -20.6577 
  29   2.0000      -0.745820       -20.2948 
  30   2.0000      -0.738962       -20.1082 
  31   2.0000      -0.701457       -19.0876 
  32   2.0000      -0.673043       -18.3144 
  33   2.0000      -0.629395       -17.1267 
  34   2.0000      -0.612813       -16.6755 
  35   2.0000      -0.605005       -16.4630 
  36   2.0000      -0.589793       -16.0491 
  37   2.0000      -0.577320       -15.7097 
  38   2.0000      -0.557357       -15.1664 
  39   2.0000      -0.553954       -15.0738 
  40   2.0000      -0.543270       -14.7831 
  41   2.0000      -0.524080       -14.2609 
  42   2.0000      -0.491504       -13.3745 
  43   2.0000      -0.477510       -12.9937 
  44   2.0000      -0.471044       -12.8178 
  45   2.0000      -0.450682       -12.2637 
  46   2.0000      -0.442022       -12.0280 
  47   2.0000      -0.438339       -11.9278 
  48   2.0000      -0.432537       -11.7699 
  49   2.0000      -0.431894       -11.7524 
  50   2.0000      -0.425403       -11.5758 
  51   2.0000      -0.413338       -11.2475 
  52   2.0000      -0.410939       -11.1822 
  53   2.0000      -0.402120       -10.9422 
  54   2.0000      -0.395098       -10.7512 
  55   2.0000      -0.386828       -10.5261 
  56   2.0000      -0.381628       -10.3846 
  57   2.0000      -0.373717       -10.1694 
  58   2.0000      -0.370426       -10.0798 
  59   2.0000      -0.364739        -9.9251 
  60   2.0000      -0.357210        -9.7202 
  61   2.0000      -0.349923        -9.5219 
  62   2.0000      -0.342582        -9.3221 
  63   2.0000      -0.328272        -8.9327 
  64   2.0000      -0.327326        -8.9070 
  65   2.0000      -0.310986        -8.4624 
  66   2.0000      -0.304464        -8.2849 
  67   2.0000      -0.266127        -7.2417 
  68   2.0000      -0.254467        -6.9244 
  69   2.0000      -0.252718        -6.8768 
  70   2.0000      -0.250671        -6.8211 
  71   2.0000      -0.189523        -5.1572 
  72   0.0000      -0.081013        -2.2045 
  73   0.0000      -0.058687        -1.5969 
  74   0.0000      -0.047710        -1.2983 
  75   0.0000      -0.015055        -0.4097 
  76   0.0000       0.010707         0.2914 
  77   0.0000       0.059694         1.6243 
  78   0.0000       0.080796         2.1986 
  79   0.0000       0.085539         2.3276 
  80   0.0000       0.093117         2.5338 
  81   0.0000       0.096107         2.6152 
  82   0.0000       0.098286         2.6745 
  83   0.0000       0.107539         2.9263 
  84   0.0000       0.121252         3.2994 
  85   0.0000       0.125151         3.4055 
  86   0.0000       0.127969         3.4822 
  87   0.0000       0.134771         3.6673 
  88   0.0000       0.143756         3.9118 
  89   0.0000       0.145864         3.9692 
  90   0.0000       0.151750         4.1293 
  91   0.0000       0.163294         4.4434 
  92   0.0000       0.166882         4.5411 
  93   0.0000       0.171036         4.6541 
  94   0.0000       0.178799         4.8654 
  95   0.0000       0.185470         5.0469 
  96   0.0000       0.191467         5.2101 
  97   0.0000       0.198850         5.4110 
  98   0.0000       0.204999         5.5783 
  99   0.0000       0.206876         5.6294 
 100   0.0000       0.211798         5.7633 
 101   0.0000       0.214917         5.8482 
 102   0.0000       0.217959         5.9310 
 103   0.0000       0.223332         6.0772 
 104   0.0000       0.225660         6.1405 
 105   0.0000       0.233272         6.3476 
 106   0.0000       0.234895         6.3918 
 107   0.0000       0.241125         6.5613 
 108   0.0000       0.249251         6.7825 
 109   0.0000       0.252903         6.8818 
 110   0.0000       0.255778         6.9601 
 111   0.0000       0.260314         7.0835 
 112   0.0000       0.266631         7.2554 
 113   0.0000       0.276487         7.5236 
 114   0.0000       0.280557         7.6343 
 115   0.0000       0.282808         7.6956 
 116   0.0000       0.289593         7.8802 
 117   0.0000       0.294642         8.0176 
 118   0.0000       0.301322         8.1994 
 119   0.0000       0.304463         8.2849 
 120   0.0000       0.307023         8.3545 
 121   0.0000       0.320911         8.7324 
 122   0.0000       0.324764         8.8373 
 123   0.0000       0.330049         8.9811 
 124   0.0000       0.332497         9.0477 
 125   0.0000       0.342530         9.3207 
 126   0.0000       0.352047         9.5797 
 127   0.0000       0.358450         9.7539 
 128   0.0000       0.366989         9.9863 
 129   0.0000       0.367926        10.0118 
 130   0.0000       0.379048        10.3144 
 131   0.0000       0.387467        10.5435 
 132   0.0000       0.391764        10.6604 
 133   0.0000       0.403627        10.9833 
 134   0.0000       0.409853        11.1527 
 135   0.0000       0.426205        11.5976 
 136   0.0000       0.428000        11.6465 
 137   0.0000       0.433417        11.7939 
 138   0.0000       0.448227        12.1969 
 139   0.0000       0.451701        12.2914 
 140   0.0000       0.461674        12.5628 
 141   0.0000       0.464190        12.6312 
 142   0.0000       0.469809        12.7842 
 143   0.0000       0.482360        13.1257 
 144   0.0000       0.486166        13.2293 
 145   0.0000       0.496945        13.5226 
 146   0.0000       0.500638        13.6230 
 147   0.0000       0.506305        13.7773 
 148   0.0000       0.511362        13.9149 
 149   0.0000       0.524280        14.2664 
 150   0.0000       0.526208        14.3189 
 151   0.0000       0.536758        14.6059 
 152   0.0000       0.543761        14.7965 
 153   0.0000       0.545445        14.8423 
 154   0.0000       0.550471        14.9791 
 155   0.0000       0.557694        15.1756 
 156   0.0000       0.560772        15.2594 
 157   0.0000       0.569960        15.5094 
 158   0.0000       0.573800        15.6139 
 159   0.0000       0.579357        15.7651 
 160   0.0000       0.582906        15.8617 
 161   0.0000       0.598582        16.2883 
 162   0.0000       0.605280        16.4705 
 163   0.0000       0.608542        16.5593 
 164   0.0000       0.613099        16.6833 
 165   0.0000       0.616360        16.7720 
 166   0.0000       0.624654        16.9977 
 167   0.0000       0.629643        17.1335 
 168   0.0000       0.639887        17.4122 
 169   0.0000       0.647199        17.6112 
 170   0.0000       0.656994        17.8777 
 171   0.0000       0.661804        18.0086 
 172   0.0000       0.662624        18.0309 
 173   0.0000       0.668150        18.1813 
 174   0.0000       0.675350        18.3772 
 175   0.0000       0.682687        18.5769 
 176   0.0000       0.697267        18.9736 
 177   0.0000       0.700813        19.0701 
 178   0.0000       0.712467        19.3872 
 179   0.0000       0.714784        19.4502 
 180   0.0000       0.717248        19.5173 
 181   0.0000       0.728017        19.8104 
 182   0.0000       0.737626        20.0718 
 183   0.0000       0.744668        20.2634 
 184   0.0000       0.748875        20.3779 
 185   0.0000       0.755951        20.5705 
 186   0.0000       0.758224        20.6323 
 187   0.0000       0.769092        20.9281 
 188   0.0000       0.776876        21.1399 
 189   0.0000       0.780790        21.2464 
 190   0.0000       0.789873        21.4935 
 191   0.0000       0.794987        21.6327 
 192   0.0000       0.807510        21.9735 
 193   0.0000       0.817524        22.2460 
 194   0.0000       0.841109        22.8877 
 195   0.0000       0.850848        23.1528 
 196   0.0000       0.874914        23.8076 
 197   0.0000       0.878974        23.9181 
 198   0.0000       0.896830        24.4040 
 199   0.0000       0.908097        24.7106 
 200   0.0000       0.919443        25.0193 
 201   0.0000       0.942742        25.6533 
 202   0.0000       0.947246        25.7759 
 203   0.0000       0.961972        26.1766 
 204   0.0000       0.971417        26.4336 
 205   0.0000       0.973687        26.4954 
 206   0.0000       0.994626        27.0652 
 207   0.0000       1.000998        27.2385 
 208   0.0000       1.017506        27.6878 
 209   0.0000       1.048657        28.5354 
 210   0.0000       1.061222        28.8773 
 211   0.0000       1.079935        29.3865 
 212   0.0000       1.106939        30.1213 
 213   0.0000       1.118545        30.4372 
 214   0.0000       1.135287        30.8927 
 215   0.0000       1.156098        31.4590 
 216   0.0000       1.167366        31.7656 
 217   0.0000       1.175467        31.9861 
 218   0.0000       1.191369        32.4188 
 219   0.0000       1.205168        32.7943 
 220   0.0000       1.212886        33.0043 
 221   0.0000       1.221523        33.2393 
 222   0.0000       1.235792        33.6276 
 223   0.0000       1.252458        34.0811 
 224   0.0000       1.276536        34.7363 
 225   0.0000       1.281831        34.8804 
 226   0.0000       1.308675        35.6109 
 227   0.0000       1.309556        35.6348 
 228   0.0000       1.318539        35.8793 
 229   0.0000       1.323437        36.0125 
 230   0.0000       1.330090        36.1936 
 231   0.0000       1.347749        36.6741 
 232   0.0000       1.351687        36.7813 
 233   0.0000       1.355623        36.8884 
 234   0.0000       1.360539        37.0222 
 235   0.0000       1.372206        37.3396 
 236   0.0000       1.383717        37.6528 
 237   0.0000       1.388485        37.7826 
 238   0.0000       1.395171        37.9645 
 239   0.0000       1.406414        38.2705 
 240   0.0000       1.416953        38.5573 
 241   0.0000       1.424153        38.7532 
 242   0.0000       1.427505        38.8444 
 243   0.0000       1.432068        38.9686 
 244   0.0000       1.436599        39.0918 
 245   0.0000       1.445210        39.3262 
 246   0.0000       1.450373        39.4667 
 247   0.0000       1.466186        39.8969 
 248   0.0000       1.467233        39.9254 
 249   0.0000       1.471756        40.0485 
 250   0.0000       1.480779        40.2940 
 251   0.0000       1.490321        40.5537 
 252   0.0000       1.491938        40.5977 
 253   0.0000       1.498895        40.7870 
 254   0.0000       1.507961        41.0337 
 255   0.0000       1.515375        41.2354 
 256   0.0000       1.522153        41.4199 
 257   0.0000       1.529436        41.6181 
 258   0.0000       1.535164        41.7739 
 259   0.0000       1.538507        41.8649 
 260   0.0000       1.549545        42.1653 
 261   0.0000       1.553665        42.2774 
 262   0.0000       1.562414        42.5154 
 263   0.0000       1.569627        42.7117 
 264   0.0000       1.571810        42.7711 
 265   0.0000       1.582149        43.0525 
 266   0.0000       1.603192        43.6251 
 267   0.0000       1.607190        43.7339 
 268   0.0000       1.615357        43.9561 
 269   0.0000       1.625412        44.2297 
 270   0.0000       1.631227        44.3879 
 271   0.0000       1.636016        44.5183 
 272   0.0000       1.645695        44.7816 
 273   0.0000       1.665743        45.3272 
 274   0.0000       1.678334        45.6698 
 275   0.0000       1.682850        45.7927 
 276   0.0000       1.706177        46.4274 
 277   0.0000       1.729452        47.0608 
 278   0.0000       1.731566        47.1183 
 279   0.0000       1.749222        47.5987 
 280   0.0000       1.758744        47.8579 
 281   0.0000       1.771168        48.1959 
 282   0.0000       1.780827        48.4588 
 283   0.0000       1.794764        48.8380 
 284   0.0000       1.821246        49.5586 
 285   0.0000       1.839580        50.0575 
 286   0.0000       1.865820        50.7715 
 287   0.0000       1.876576        51.0642 
 288   0.0000       1.923447        52.3397 
 289   0.0000       1.950242        53.0688 
 290   0.0000       1.973168        53.6926 
 291   0.0000       1.988432        54.1080 
 292   0.0000       1.994985        54.2863 
 293   0.0000       2.003329        54.5134 
 294   0.0000       2.032509        55.3074 
 295   0.0000       2.039252        55.4909 
 296   0.0000       2.043130        55.5964 
 297   0.0000       2.048606        55.7454 
 298   0.0000       2.065972        56.2180 
 299   0.0000       2.074949        56.4622 
 300   0.0000       2.079031        56.5733 
 301   0.0000       2.085299        56.7439 
 302   0.0000       2.091119        56.9022 
 303   0.0000       2.096391        57.0457 
 304   0.0000       2.103721        57.2451 
 305   0.0000       2.121534        57.7299 
 306   0.0000       2.139614        58.2219 
 307   0.0000       2.151670        58.5499 
 308   0.0000       2.157725        58.7147 
 309   0.0000       2.162897        58.8554 
 310   0.0000       2.183941        59.4281 
 311   0.0000       2.212803        60.2134 
 312   0.0000       2.221726        60.4562 
 313   0.0000       2.229660        60.6721 
 314   0.0000       2.246881        61.1407 
 315   0.0000       2.252341        61.2893 
 316   0.0000       2.264414        61.6178 
 317   0.0000       2.268777        61.7366 
 318   0.0000       2.269446        61.7548 
 319   0.0000       2.276431        61.9448 
 320   0.0000       2.287816        62.2547 
 321   0.0000       2.305439        62.7342 
 322   0.0000       2.307824        62.7991 
 323   0.0000       2.316627        63.0386 
 324   0.0000       2.326803        63.3155 
 325   0.0000       2.334469        63.5241 
 326   0.0000       2.346104        63.8407 
 327   0.0000       2.349162        63.9239 
 328   0.0000       2.362443        64.2853 
 329   0.0000       2.365215        64.3608 
 330   0.0000       2.367178        64.4142 
 331   0.0000       2.381187        64.7954 
 332   0.0000       2.384770        64.8929 
 333   0.0000       2.392375        65.0998 
 334   0.0000       2.395466        65.1839 
 335   0.0000       2.402613        65.3784 
 336   0.0000       2.418531        65.8116 
 337   0.0000       2.437642        66.3316 
 338   0.0000       2.446033        66.5599 
 339   0.0000       2.462432        67.0062 
 340   0.0000       2.472642        67.2840 
 341   0.0000       2.485920        67.6453 
 342   0.0000       2.508462        68.2587 
 343   0.0000       2.521702        68.6190 
 344   0.0000       2.527105        68.7660 
 345   0.0000       2.551215        69.4221 
 346   0.0000       2.563462        69.7553 
 347   0.0000       2.594134        70.5900 
 348   0.0000       2.616476        71.1979 
 349   0.0000       2.651584        72.1533 
 350   0.0000       2.656655        72.2913 
 351   0.0000       2.675774        72.8115 
 352   0.0000       2.681698        72.9727 
 353   0.0000       2.687346        73.1264 
 354   0.0000       2.697321        73.3978 
 355   0.0000       2.701517        73.5120 
 356   0.0000       2.727867        74.2290 
 357   0.0000       2.740267        74.5664 
 358   0.0000       2.745147        74.6992 
 359   0.0000       2.770575        75.3912 
 360   0.0000       2.777583        75.5819 
 361   0.0000       2.791275        75.9545 
 362   0.0000       2.811825        76.5137 
 363   0.0000       2.825480        76.8852 
 364   0.0000       2.843004        77.3621 
 365   0.0000       2.859922        77.8224 
 366   0.0000       2.888013        78.5868 
 367   0.0000       2.904797        79.0435 
 368   0.0000       2.924505        79.5798 
 369   0.0000       2.934011        79.8385 
 370   0.0000       2.962209        80.6058 
 371   0.0000       2.971028        80.8458 
 372   0.0000       2.979259        81.0698 
 373   0.0000       2.993690        81.4625 
 374   0.0000       3.014329        82.0241 
 375   0.0000       3.026782        82.3629 
 376   0.0000       3.090205        84.0888 
 377   0.0000       3.097497        84.2872 
 378   0.0000       3.103279        84.4445 
 379   0.0000       3.106974        84.5451 
 380   0.0000       3.130876        85.1955 
 381   0.0000       3.141270        85.4783 
 382   0.0000       3.161101        86.0179 
 383   0.0000       3.178772        86.4988 
 384   0.0000       3.202764        87.1516 
 385   0.0000       3.217813        87.5611 
 386   0.0000       3.227451        87.8234 
 387   0.0000       3.237579        88.0990 
 388   0.0000       3.256122        88.6036 
 389   0.0000       3.260750        88.7295 
 390   0.0000       3.271439        89.0204 
 391   0.0000       3.277153        89.1759 
 392   0.0000       3.285800        89.4112 
 393   0.0000       3.289622        89.5152 
 394   0.0000       3.292441        89.5919 
 395   0.0000       3.302179        89.8569 
 396   0.0000       3.314101        90.1813 
 397   0.0000       3.318650        90.3051 
 398   0.0000       3.328017        90.5599 
 399   0.0000       3.334333        90.7318 
 400   0.0000       3.342023        90.9411 
 401   0.0000       3.345680        91.0406 
 402   0.0000       3.356955        91.3474 
 403   0.0000       3.370158        91.7067 
 404   0.0000       3.407137        92.7129 
 405   0.0000       3.414941        92.9253 
 406   0.0000       3.419996        93.0628 
 407   0.0000       3.429441        93.3198 
 408   0.0000       3.433683        93.4353 
 409   0.0000       3.444265        93.7232 
 410   0.0000       3.460349        94.1609 
 411   0.0000       3.465878        94.3113 
 412   0.0000       3.476518        94.6009 
 413   0.0000       3.488026        94.9140 
 414   0.0000       3.498581        95.2012 
 415   0.0000       3.521343        95.8206 
 416   0.0000       3.546538        96.5062 
 417   0.0000       3.598691        97.9254 
 418   0.0000       3.604766        98.0907 
 419   0.0000       3.625026        98.6420 
 420   0.0000       3.631393        98.8152 
 421   0.0000       3.647794        99.2615 
 422   0.0000       3.697491       100.6139 
 423   0.0000       3.714260       101.0702 
 424   0.0000       3.735740       101.6547 
 425   0.0000       3.768672       102.5508 
 426   0.0000       3.818393       103.9038 
 427   0.0000       3.859939       105.0343 
 428   0.0000       4.011778       109.1660 
 429   0.0000       4.080054       111.0239 
 430   0.0000       4.097599       111.5013 
 431   0.0000       4.133252       112.4715 
 432   0.0000       4.148694       112.8917 
 433   0.0000       4.171974       113.5252 
 434   0.0000       4.273362       116.2841 
 435   0.0000       4.378612       119.1481 
 436   0.0000       4.497708       122.3889 
 437   0.0000       4.574146       124.4688 
 438   0.0000       4.703985       128.0019 
 439   0.0000       4.806999       130.8051 
 440   0.0000      21.458120       583.9051 
 441   0.0000      21.480444       584.5126 
 442   0.0000      21.890276       595.6647 
 443   0.0000      21.946633       597.1983 
 444   0.0000      22.036540       599.6447 
 445   0.0000      22.068363       600.5107 
 446   0.0000      22.095600       601.2518 
 447   0.0000      22.165276       603.1478 
 448   0.0000      22.210233       604.3712 
 449   0.0000      22.212639       604.4366 
 450   0.0000      22.248571       605.4144 
 451   0.0000      22.276776       606.1819 
 452   0.0000      22.354735       608.3033 
 453   0.0000      22.370239       608.7251 
 454   0.0000      32.072429       872.7352 
 455   0.0000      43.616087      1186.8541 
 456   0.0000      43.740023      1190.2265 
 457   0.0000      57.199658      1556.4818 
 458   0.0000      57.214866      1556.8956 
 459   0.0000      57.300842      1559.2352 
Total SCF time: 0 days 0 hours 0 min 34 sec 

Maximum memory used throughout the entire SCF-calculation: 86.6 MB


-------------------------------------------------------------------------------
                          DFT DISPERSION CORRECTION                            
                                                                               
                                 DFTD4 V2.5                                    
-------------------------------------------------------------------------------
Starting D4
-------------------------   ----------------
Dispersion correction           -0.013411886
-------------------------   ----------------

------------------   -----------------
gCP correction             0.018045386
------------------   -----------------

-------------------------   --------------------
FINAL SINGLE POINT ENERGY     -1044.160864643930
-------------------------   --------------------



           ************************************************************
           *        Program running with 48 parallel MPI-processes    *
           *              working on a common directory               *
           ************************************************************
------------------------------------------------------------------------------
                         ORCA SCF GRADIENT CALCULATION
------------------------------------------------------------------------------

Gradient of the Kohn-Sham DFT energy:
Kohn-Sham wavefunction type      ... RKS
Hartree-Fock exchange scaling    ...    0.000
Number of operators              ...    1
Number of atoms                  ...   30
Basis set dimensions             ...  460
Integral neglect threshold       ... 2.5e-11
Integral primitive cutoff        ... 2.5e-12
SHARK Integral package           ... ON

Nuc. rep. gradient       (SHARK) ... done (  0.0 sec)
HCore & Overlap gradient (SHARK) ... done (  0.1 sec)
RI-J gradient            (SHARK) ... done (  0.2 sec)
Exchange-correlation gradient    ... done
Dispersion correction            ... Starting D4
Starting D4
Starting D4
Starting D4
Starting D4
Starting D4
Starting D4
Starting D4
Starting D4
Starting D4
Starting D4
Starting D4
Starting D4
Starting D4
Starting D4
Starting D4
Starting D4
Starting D4
Starting D4
Starting D4
Starting D4
Starting D4
Starting D4
Starting D4
Starting D4
Starting D4
Starting D4
Starting D4
Starting D4
Starting D4
Starting D4
Starting D4
Starting D4
Starting D4
Starting D4
Starting D4
Starting D4
Starting D4
Starting D4
Starting D4
Starting D4
Starting D4
Starting D4
Starting D4
Starting D4
Starting D4
Starting D4


------------------- 
Dispersion Gradient 
------------------- 
   1  :    0.000096097    0.000058242    0.000080156
   2  :    0.000067214    0.000086195    0.000112666
   3  :    0.000037042    0.000085306    0.000098454
   4  :    0.000047636    0.000032206    0.000001223
   5  :    0.000095200   -0.000002546   -0.000046946
   6  :    0.000118748    0.000019235    0.000014086
   7  :    0.000079044   -0.000050328   -0.000116755
   8  :    0.000030354   -0.000032587   -0.000129443
   9  :    0.000079745   -0.000055736   -0.000054107
  10  :   -0.000004316    0.000003241   -0.000070050
  11  :   -0.000050441   -0.000015928    0.000007805
  12  :   -0.000054752   -0.000051402    0.000099677
  13  :   -0.000064343   -0.000054769    0.000119661
  14  :   -0.000080404   -0.000032358    0.000069485
  15  :   -0.000088477   -0.000011309   -0.000013774
  16  :   -0.000059014    0.000001414   -0.000056991
  17  :   -0.000072300    0.000002184   -0.000051026
  18  :   -0.000047000   -0.000033143   -0.000063188
  19  :   -0.000075254    0.000002819   -0.000012099
  20  :   -0.000047155    0.000038088   -0.000059076
  21  :    0.000036173    0.000018242    0.000027983
  22  :    0.000012584    0.000030833    0.000043900
  23  :    0.000001786    0.000044198    0.000043149
  24  :    0.000049695    0.000001739   -0.000005258
  25  :    0.000023976   -0.000030891   -0.000037177
  26  :    0.000005786   -0.000002904   -0.000041992
  27  :   -0.000015356   -0.000031234    0.000051621
  28  :   -0.000018177   -0.000020621    0.000050688
  29  :   -0.000038175   -0.000010727    0.000026731
  30  :   -0.000021262    0.000012539   -0.000054509

  |G| =    0.004050146

Starting D4
done
gCP correction                   ... done

------------------
CARTESIAN GRADIENT
------------------

   1   C   :   -0.003719888   -0.000684338   -0.001712750
   2   C   :    0.001092054    0.001721458    0.001924268
   3   C   :    0.001482582   -0.000523980   -0.000737940
   4   C   :   -0.001476971   -0.001052117   -0.000555985
   5   C   :   -0.002799607    0.000558031    0.001888278
   6   C   :    0.002424700   -0.000317844    0.000672357
   7   C   :    0.003133884   -0.006377898   -0.011957812
   8   O   :    0.004310445    0.001971002    0.008666128
   9   O   :   -0.013575348    0.007897019    0.004961779
  10   N   :   -0.001950549    0.000936460    0.009358626
  11   C   :    0.007748306    0.000666965   -0.002712634
  12   C   :   -0.002769420    0.000414594   -0.000754249
  13   C   :    0.000569471   -0.000200209    0.000305379
  14   C   :    0.003813926   -0.000234159    0.002685886
  15   C   :    0.001219262   -0.000065605    0.001143215
  16   C   :    0.000945142   -0.000431816   -0.000882444
  17   C   :    0.004471802    0.000218494    0.004230708
  18   F   :   -0.004524323    0.008942527    0.003272546
  19   F   :    0.005040691    0.000377414   -0.009649088
  20   F   :   -0.005003729   -0.009038437    0.002712583
  21   H   :   -0.004457373   -0.001674483   -0.002034067
  22   H   :    0.000877570   -0.002983168   -0.004689340
  23   H   :    0.003933935   -0.001152448   -0.002842274
  24   H   :   -0.004797526    0.000679668    0.001415641
  25   H   :    0.004752077   -0.000583209    0.002126944
  26   H   :    0.000082940    0.000002269   -0.000784614
  27   H   :   -0.003183322    0.000444089   -0.003654223
  28   H   :    0.000131868    0.001556931   -0.005209684
  29   H   :    0.004168203    0.001024398   -0.002618341
  30   H   :   -0.001896146   -0.002091614    0.005466000

Difference to translation invariance:
           :    0.0000446559   -0.0000000032    0.0000348933

Difference to rotation invariance:
           :    0.0012177335    0.0002256525   -0.0003060336

Norm of the cartesian gradient     ...    0.0379837095
RMS gradient                       ...    0.0040038345
MAX gradient                       ...    0.0135753477

-------
TIMINGS
-------

Total SCF gradient time            ...        3.668 sec

One electron gradient       ....       0.061 sec  (  1.7%)
RI-J Coulomb gradient       ....       0.249 sec  (  6.8%)
XC gradient                 ....       1.712 sec  ( 46.7%)
CPCM gradient               ....       0.258 sec  (  7.0%)
   A-Matrix (El+Nuc)        ....       0.110 sec  (  3.0%)
   Potential                ....       0.148 sec  (  4.0%)

Maximum memory used throughout the entire SCFGRAD-calculation: 49.2 MB
------------------------------------------------------------------------------
                         ORCA GEOMETRY RELAXATION STEP
------------------------------------------------------------------------------

Reading the OPT-File                    .... done
Getting information on internals        .... done
Copying old internal coords+grads       .... done
Making the new internal coordinates     .... (new redundants).... done
Validating the new internal coordinates .... (new redundants).... done
Calculating the B-matrix                .... done
Calculating the G,G- and P matrices     .... done
Transforming gradient to internals      .... done
Projecting the internal gradient        .... done
Number of atoms                         ....  30
Number of internal coordinates          .... 148
Current Energy                          .... -1044.160864644 Eh
Current gradient norm                   ....     0.037983710 Eh/bohr
Maximum allowed component of the step   ....  0.300
Current trust radius                    ....  0.300
Evaluating the initial hessian          ....  (Almloef) done
Projecting the Hessian                  .... done
Forming the augmented Hessian           .... done
Diagonalizing the augmented Hessian     .... done
Last element of RFO vector              ....  0.992481731
Lowest eigenvalues of augmented Hessian:
 -0.003668593  0.013265247  0.014707872  0.020954997  0.021044043
Length of the computed step             ....  0.123320018
The final length of the internal step   ....  0.123320018
Converting the step to cartesian space:
 Initial RMS(Int)=    0.0101368430
Transforming coordinates:
 Iter   0:  RMS(Cart)=    0.0416924085 RMS(Int)=    0.5163490719
 Iter   1:  RMS(Cart)=    0.0005623026 RMS(Int)=    0.0002640034
 Iter   2:  RMS(Cart)=    0.0000175882 RMS(Int)=    0.0000061049
 Iter   3:  RMS(Cart)=    0.0000006378 RMS(Int)=    0.0000003317
 Iter   4:  RMS(Cart)=    0.0000000229 RMS(Int)=    0.0000000096
done
Storing new coordinates                 .... done

                                .--------------------.
          ----------------------|Geometry convergence|-------------------------
          Item                value                   Tolerance       Converged
          ---------------------------------------------------------------------
          RMS gradient        0.0035033784            0.0001000000      NO
          MAX gradient        0.0124804234            0.0003000000      NO
          RMS step            0.0101368430            0.0020000000      NO
          MAX step            0.0324746472            0.0040000000      NO
          ........................................................
          Max(Bonds)      0.0109      Max(Angles)    1.12
          Max(Dihed)        1.86      Max(Improp)    0.00
          ---------------------------------------------------------------------

The optimization has not yet converged - more geometry cycles are needed


    ---------------------------------------------------------------------------
                         Redundant Internal Coordinates
                            (Angstroem and degrees)

        Definition                    Value    dE/dq     Step     New-Value
    ----------------------------------------------------------------------------
     1. B(C   1,C   0)                1.3898 -0.006173  0.0052    1.3950   
     2. B(C   2,C   1)                1.3777 -0.004820  0.0039    1.3815   
     3. B(C   3,C   2)                1.4006 -0.006035  0.0053    1.4058   
     4. B(C   4,C   3)                1.4172 -0.008938  0.0083    1.4255   
     5. B(C   5,C   4)                1.4002 -0.005388  0.0047    1.4049   
     6. B(C   5,C   0)                1.3769 -0.005288  0.0042    1.3811   
     7. B(C   6,C   4)                1.4711 -0.004808  0.0054    1.4765   
     8. B(O   7,C   6)                1.2230 -0.009118  0.0047    1.2276   
     9. B(O   8,C   6)                1.3336 -0.012480  0.0095    1.3431   
    10. B(N   9,C   3)                1.3700 -0.009438  0.0082    1.3782   
    11. B(C  10,N   9)                1.3778 -0.012143  0.0109    1.3887   
    12. B(C  11,C  10)                1.3990 -0.005743  0.0050    1.4041   
    13. B(C  12,C  11)                1.3811 -0.006182  0.0051    1.3862   
    14. B(C  13,C  12)                1.3850 -0.006601  0.0055    1.3906   
    15. B(C  14,C  13)                1.3887 -0.004291  0.0036    1.3923   
    16. B(C  15,C  14)                1.3861 -0.004488  0.0037    1.3898   
    17. B(C  15,C  10)                1.3976 -0.003836  0.0033    1.4009   
    18. B(C  16,C  14)                1.4958 -0.000332  0.0004    1.4962   
    19. B(F  17,C  16)                1.3554 -0.008966  0.0080    1.3634   
    20. B(F  18,C  16)                1.3443 -0.008664  0.0074    1.3517   
    21. B(F  19,C  16)                1.3506 -0.009062  0.0079    1.3586   
    22. B(H  20,C   0)                1.0779 -0.005165  0.0072    1.0851   
    23. B(H  21,C   1)                1.0781 -0.005600  0.0078    1.0859   
    24. B(H  22,C   2)                1.0772 -0.004870  0.0068    1.0839   
    25. B(H  23,C   5)                1.0796 -0.004991  0.0070    1.0866   
    26. B(H  24,O   8)                0.9744  0.004696 -0.0050    0.9694   
    27. B(H  25,N   9)                1.0160  0.000780 -0.0010    1.0150   
    28. B(H  26,C  11)                1.0776 -0.004794  0.0067    1.0843   
    29. B(H  27,C  12)                1.0781 -0.005399  0.0075    1.0856   
    30. B(H  28,C  13)                1.0773 -0.004900  0.0068    1.0841   
    31. B(H  29,C  15)                1.0787 -0.006020  0.0084    1.0871   
    32. A(C   5,C   0,H  20)          120.14 -0.000585    0.08    120.21   
    33. A(C   1,C   0,H  20)          120.35 -0.001233    0.18    120.53   
    34. A(C   1,C   0,C   5)          119.50  0.001817   -0.25    119.25   
    35. A(C   0,C   1,C   2)          120.39 -0.001672    0.23    120.62   
    36. A(C   2,C   1,H  21)          119.54  0.001324   -0.19    119.35   
    37. A(C   0,C   1,H  21)          120.05  0.000349   -0.04    120.01   
    38. A(C   1,C   2,C   3)          121.22 -0.000072    0.01    121.23   
    39. A(C   1,C   2,H  22)          119.82  0.001002   -0.15    119.67   
    40. A(C   3,C   2,H  22)          118.88 -0.000937    0.16    119.04   
    41. A(C   2,C   3,C   4)          118.41  0.001030   -0.14    118.28   
    42. A(C   4,C   3,N   9)          120.07 -0.003240    0.44    120.51   
    43. A(C   2,C   3,N   9)          121.46  0.002201   -0.29    121.18   
    44. A(C   3,C   4,C   5)          119.11  0.000505   -0.07    119.04   
    45. A(C   5,C   4,C   6)          119.95  0.001233   -0.17    119.78   
    46. A(C   3,C   4,C   6)          120.91 -0.001744    0.25    121.16   
    47. A(C   0,C   5,C   4)          121.35 -0.001611    0.22    121.58   
    48. A(C   4,C   5,H  23)          119.85  0.000155    0.00    119.85   
    49. A(C   0,C   5,H  23)          118.73  0.001443   -0.20    118.52   
    50. A(C   4,C   6,O   8)          118.07 -0.002978    0.38    118.44   
    51. A(O   7,C   6,O   8)          118.22  0.005874   -0.72    117.50   
    52. A(C   4,C   6,O   7)          123.72 -0.002895    0.34    124.06   
    53. A(C   6,O   8,H  24)          113.81  0.004040   -0.61    113.19   
    54. A(C   3,N   9,C  10)          128.90 -0.000038    0.01    128.91   
    55. A(C  10,N   9,H  25)          116.42  0.000062   -0.00    116.42   
    56. A(C   3,N   9,H  25)          114.55 -0.000036    0.01    114.56   
    57. A(N   9,C  10,C  11)          123.44 -0.001080    0.14    123.58   
    58. A(C  11,C  10,C  15)          118.53 -0.000633    0.08    118.61   
    59. A(N   9,C  10,C  15)          117.95  0.001722   -0.24    117.72   
    60. A(C  12,C  11,H  26)          119.56  0.000207   -0.06    119.51   
    61. A(C  10,C  11,H  26)          119.78 -0.001404    0.20    119.98   
    62. A(C  10,C  11,C  12)          120.63  0.001199   -0.15    120.48   
    63. A(C  13,C  12,H  27)          119.43 -0.000348    0.05    119.48   
    64. A(C  11,C  12,H  27)          119.56  0.000968   -0.16    119.40   
    65. A(C  11,C  12,C  13)          121.00 -0.000618    0.11    121.11   
    66. A(C  14,C  13,H  28)          120.34 -0.001723    0.26    120.59   
    67. A(C  12,C  13,H  28)          121.20  0.000551   -0.11    121.09   
    68. A(C  12,C  13,C  14)          118.46  0.001172   -0.15    118.31   
    69. A(C  15,C  14,C  16)          117.98 -0.000097    0.02    118.00   
    70. A(C  13,C  14,C  16)          120.63  0.001123   -0.15    120.48   
    71. A(C  13,C  14,C  15)          121.38 -0.001026    0.13    121.51   
    72. A(C  14,C  15,H  29)          120.08 -0.001100    0.18    120.26   
    73. A(C  10,C  15,H  29)          119.96  0.001203   -0.18    119.78   
    74. A(C  10,C  15,C  14)          119.96 -0.000103   -0.00    119.96   
    75. A(F  18,C  16,F  19)          105.71 -0.007924    1.07    106.78   
    76. A(F  17,C  16,F  19)          105.06 -0.006918    1.00    106.07   
    77. A(C  14,C  16,F  19)          113.13  0.006080   -0.83    112.31   
    78. A(F  17,C  16,F  18)          105.46 -0.007685    1.04    106.50   
    79. A(C  14,C  16,F  18)          114.01  0.007939   -1.12    112.89   
    80. A(C  14,C  16,F  17)          112.68  0.005912   -0.81    111.87   
    81. D(C   2,C   1,C   0,H  20)    178.95  0.000049   -0.08    178.87   
    82. D(H  21,C   1,C   0,H  20)      0.41 -0.000014    0.03      0.44   
    83. D(C   2,C   1,C   0,C   5)      0.32  0.000082   -0.15      0.17   
    84. D(H  21,C   1,C   0,C   5)   -178.23  0.000020   -0.04   -178.27   
    85. D(H  22,C   2,C   1,C   0)   -176.19  0.000254   -0.38   -176.57   
    86. D(H  22,C   2,C   1,H  21)      2.37  0.000302   -0.49      1.87   
    87. D(C   3,C   2,C   1,C   0)      0.62  0.000082   -0.13      0.49   
    88. D(C   3,C   2,C   1,H  21)    179.17  0.000131   -0.24    178.93   
    89. D(N   9,C   3,C   2,H  22)     -1.42 -0.000003    0.13     -1.29   
    90. D(N   9,C   3,C   2,C   1)   -178.26  0.000107   -0.11   -178.36   
    91. D(C   4,C   3,C   2,H  22)    176.00 -0.000334    0.63    176.63   
    92. D(C   4,C   3,C   2,C   1)     -0.83 -0.000225    0.39     -0.44   
    93. D(C   6,C   4,C   3,C   2)   -177.95  0.000388   -0.90   -178.85   
    94. D(C   5,C   4,C   3,N   9)    177.60  0.000005    0.10    177.70   
    95. D(C   5,C   4,C   3,C   2)      0.13  0.000189   -0.37     -0.24   
    96. D(C   6,C   4,C   3,N   9)     -0.49  0.000203   -0.43     -0.92   
    97. D(H  23,C   5,C   4,C   6)      2.02 -0.000073    0.18      2.20   
    98. D(C   0,C   5,C   4,C   6)    178.90 -0.000303    0.64    179.54   
    99. D(C   0,C   5,C   4,C   3)      0.79 -0.000049    0.10      0.90   
   100. D(H  23,C   5,C   0,H  20)     -2.75 -0.000317    0.55     -2.20   
   101. D(H  23,C   5,C   0,C   1)    175.89 -0.000360    0.62    176.51   
   102. D(H  23,C   5,C   4,C   3)   -176.08  0.000182   -0.36   -176.44   
   103. D(C   4,C   5,C   0,H  20)   -179.67 -0.000051    0.09   -179.58   
   104. D(C   4,C   5,C   0,C   1)     -1.02 -0.000094    0.16     -0.86   
   105. D(O   8,C   6,C   4,C   5)     25.65 -0.000369    1.23     26.88   
   106. D(O   8,C   6,C   4,C   3)   -156.29 -0.000583    1.77   -154.51   
   107. D(O   7,C   6,C   4,C   5)   -154.36 -0.000406    1.32   -153.04   
   108. D(O   7,C   6,C   4,C   3)     23.71 -0.000621    1.86     25.57   
   109. D(H  24,O   8,C   6,O   7)   -173.67 -0.000654    0.94   -172.72   
   110. D(H  24,O   8,C   6,C   4)      6.33 -0.000689    1.03      7.36   
   111. D(C  10,N   9,C   3,C   2)    -26.09  0.000109   -0.14    -26.22   
   112. D(H  25,N   9,C   3,C   4)    -19.12  0.000524   -0.97    -20.09   
   113. D(H  25,N   9,C   3,C   2)    158.26  0.000298   -0.48    157.78   
   114. D(C  10,N   9,C   3,C   4)    156.53  0.000335   -0.63    155.90   
   115. D(C  15,C  10,N   9,H  25)    -24.75  0.000410   -0.74    -25.49   
   116. D(C  15,C  10,N   9,C   3)    159.66  0.000606   -1.08    158.58   
   117. D(C  11,C  10,N   9,H  25)    152.06  0.000602   -1.14    150.92   
   118. D(C  11,C  10,N   9,C   3)    -23.53  0.000798   -1.48    -25.01   
   119. D(H  26,C  11,C  10,C  15)    175.67 -0.000118    0.30    175.97   
   120. D(H  26,C  11,C  10,N   9)     -1.12 -0.000382    0.70     -0.41   
   121. D(C  12,C  11,C  10,C  15)     -2.24 -0.000175    0.35     -1.89   
   122. D(C  12,C  11,C  10,N   9)   -179.03 -0.000439    0.76   -178.27   
   123. D(H  27,C  12,C  11,H  26)      2.05  0.000082   -0.14      1.91   
[...]
  92   0.0000       0.165434         4.5017 
  93   0.0000       0.169317         4.6073 
  94   0.0000       0.174342         4.7441 
  95   0.0000       0.184354         5.0165 
  96   0.0000       0.188888         5.1399 
  97   0.0000       0.194871         5.3027 
  98   0.0000       0.200162         5.4467 
  99   0.0000       0.203662         5.5419 
 100   0.0000       0.205320         5.5870 
 101   0.0000       0.211853         5.7648 
 102   0.0000       0.216990         5.9046 
 103   0.0000       0.221219         6.0197 
 104   0.0000       0.223642         6.0856 
 105   0.0000       0.230618         6.2754 
 106   0.0000       0.231180         6.2907 
 107   0.0000       0.238150         6.4804 
 108   0.0000       0.245633         6.6840 
 109   0.0000       0.251182         6.8350 
 110   0.0000       0.253487         6.8977 
 111   0.0000       0.257664         7.0114 
 112   0.0000       0.265936         7.2365 
 113   0.0000       0.275414         7.4944 
 114   0.0000       0.277770         7.5585 
 115   0.0000       0.281983         7.6731 
 116   0.0000       0.286356         7.7921 
 117   0.0000       0.294170         8.0048 
 118   0.0000       0.298597         8.1252 
 119   0.0000       0.301005         8.1908 
 120   0.0000       0.303958         8.2711 
 121   0.0000       0.317778         8.6472 
 122   0.0000       0.322316         8.7707 
 123   0.0000       0.327050         8.8995 
 124   0.0000       0.329959         8.9787 
 125   0.0000       0.340929         9.2772 
 126   0.0000       0.349851         9.5199 
 127   0.0000       0.355758         9.6807 
 128   0.0000       0.363597         9.8940 
 129   0.0000       0.366588         9.9754 
 130   0.0000       0.374861        10.2005 
 131   0.0000       0.382604        10.4112 
 132   0.0000       0.388713        10.5774 
 133   0.0000       0.397329        10.8119 
 134   0.0000       0.408154        11.1064 
 135   0.0000       0.421693        11.4748 
 136   0.0000       0.424371        11.5477 
 137   0.0000       0.431086        11.7305 
 138   0.0000       0.444481        12.0949 
 139   0.0000       0.449252        12.2248 
 140   0.0000       0.460166        12.5218 
 141   0.0000       0.462832        12.5943 
 142   0.0000       0.469562        12.7774 
 143   0.0000       0.481600        13.1050 
 144   0.0000       0.484005        13.1705 
 145   0.0000       0.494819        13.4647 
 146   0.0000       0.497891        13.5483 
 147   0.0000       0.502960        13.6862 
 148   0.0000       0.508280        13.8310 
 149   0.0000       0.522267        14.2116 
 150   0.0000       0.524802        14.2806 
 151   0.0000       0.534349        14.5404 
 152   0.0000       0.540614        14.7109 
 153   0.0000       0.543993        14.8028 
 154   0.0000       0.547257        14.8916 
 155   0.0000       0.555371        15.1124 
 156   0.0000       0.558262        15.1911 
 157   0.0000       0.565719        15.3940 
 158   0.0000       0.570993        15.5375 
 159   0.0000       0.575780        15.6678 
 160   0.0000       0.578211        15.7339 
 161   0.0000       0.595095        16.1934 
 162   0.0000       0.602458        16.3937 
 163   0.0000       0.604293        16.4437 
 164   0.0000       0.609870        16.5954 
 165   0.0000       0.615232        16.7413 
 166   0.0000       0.621465        16.9109 
 167   0.0000       0.626103        17.0371 
 168   0.0000       0.636779        17.3276 
 169   0.0000       0.645327        17.5602 
 170   0.0000       0.650563        17.7027 
 171   0.0000       0.657231        17.8842 
 172   0.0000       0.660490        17.9728 
 173   0.0000       0.664612        18.0850 
 174   0.0000       0.668505        18.1910 
 175   0.0000       0.678713        18.4687 
 176   0.0000       0.694771        18.9057 
 177   0.0000       0.696536        18.9537 
 178   0.0000       0.708080        19.2678 
 179   0.0000       0.712035        19.3754 
 180   0.0000       0.715825        19.4786 
 181   0.0000       0.724731        19.7209 
 182   0.0000       0.733756        19.9665 
 183   0.0000       0.742730        20.2107 
 184   0.0000       0.747497        20.3404 
 185   0.0000       0.752495        20.4764 
 186   0.0000       0.756628        20.5889 
 187   0.0000       0.765956        20.8427 
 188   0.0000       0.775668        21.1070 
 189   0.0000       0.783108        21.3094 
 190   0.0000       0.786553        21.4032 
 191   0.0000       0.795207        21.6387 
 192   0.0000       0.807460        21.9721 
 193   0.0000       0.816250        22.2113 
 194   0.0000       0.838996        22.8302 
 195   0.0000       0.849940        23.1281 
 196   0.0000       0.872219        23.7343 
 197   0.0000       0.877926        23.8896 
 198   0.0000       0.890292        24.2261 
 199   0.0000       0.902384        24.5551 
 200   0.0000       0.916878        24.9495 
 201   0.0000       0.931293        25.3418 
 202   0.0000       0.949301        25.8318 
 203   0.0000       0.960104        26.1258 
 204   0.0000       0.964135        26.2354 
 205   0.0000       0.973745        26.4969 
 206   0.0000       0.985012        26.8035 
 207   0.0000       0.998536        27.1715 
 208   0.0000       1.012922        27.5630 
 209   0.0000       1.049519        28.5589 
 210   0.0000       1.058037        28.7906 
 211   0.0000       1.080096        29.3909 
 212   0.0000       1.104670        30.0596 
 213   0.0000       1.115600        30.3570 
 214   0.0000       1.134465        30.8704 
 215   0.0000       1.155865        31.4527 
 216   0.0000       1.164018        31.6745 
 217   0.0000       1.173467        31.9317 
 218   0.0000       1.188491        32.3405 
 219   0.0000       1.201638        32.6982 
 220   0.0000       1.213098        33.0101 
 221   0.0000       1.219871        33.1944 
 222   0.0000       1.227773        33.4094 
 223   0.0000       1.249810        34.0091 
 224   0.0000       1.272103        34.6157 
 225   0.0000       1.274566        34.6827 
 226   0.0000       1.304338        35.4929 
 227   0.0000       1.306777        35.5592 
 228   0.0000       1.314347        35.7652 
 229   0.0000       1.320699        35.9380 
 230   0.0000       1.328281        36.1444 
 231   0.0000       1.342961        36.5438 
 232   0.0000       1.347375        36.6639 
 233   0.0000       1.349155        36.7124 
 234   0.0000       1.354769        36.8651 
 235   0.0000       1.367641        37.2154 
 236   0.0000       1.380163        37.5561 
 237   0.0000       1.385933        37.7131 
 238   0.0000       1.394645        37.9502 
 239   0.0000       1.403173        38.1823 
 240   0.0000       1.416442        38.5433 
 241   0.0000       1.420286        38.6479 
 242   0.0000       1.425640        38.7936 
 243   0.0000       1.426580        38.8192 
 244   0.0000       1.433122        38.9972 
 245   0.0000       1.440200        39.1898 
 246   0.0000       1.444988        39.3201 
 247   0.0000       1.459037        39.7024 
 248   0.0000       1.463869        39.8339 
 249   0.0000       1.469192        39.9788 
 250   0.0000       1.477672        40.2095 
 251   0.0000       1.487118        40.4665 
 252   0.0000       1.494194        40.6591 
 253   0.0000       1.498282        40.7703 
 254   0.0000       1.506283        40.9880 
 255   0.0000       1.513158        41.1751 
 256   0.0000       1.520605        41.3778 
 257   0.0000       1.524356        41.4798 
 258   0.0000       1.533394        41.7258 
 259   0.0000       1.534912        41.7671 
 260   0.0000       1.543345        41.9966 
 261   0.0000       1.550691        42.1964 
 262   0.0000       1.558015        42.3957 
 263   0.0000       1.567597        42.6565 
 264   0.0000       1.568816        42.6896 
 265   0.0000       1.577127        42.9158 
 266   0.0000       1.598752        43.5042 
 267   0.0000       1.600712        43.5576 
 268   0.0000       1.610193        43.8156 
 269   0.0000       1.618875        44.0518 
 270   0.0000       1.626433        44.2575 
 271   0.0000       1.627344        44.2823 
 272   0.0000       1.641602        44.6703 
 273   0.0000       1.667996        45.3885 
 274   0.0000       1.671684        45.4888 
 275   0.0000       1.679516        45.7020 
 276   0.0000       1.696756        46.1711 
 277   0.0000       1.725525        46.9539 
 278   0.0000       1.730426        47.0873 
 279   0.0000       1.749006        47.5929 
 280   0.0000       1.757454        47.8227 
 281   0.0000       1.765795        48.0497 
 282   0.0000       1.779099        48.4117 
 283   0.0000       1.792294        48.7708 
 284   0.0000       1.814863        49.3849 
 285   0.0000       1.835715        49.9524 
 286   0.0000       1.866750        50.7969 
 287   0.0000       1.873533        50.9814 
 288   0.0000       1.922832        52.3229 
 289   0.0000       1.946465        52.9660 
 290   0.0000       1.970130        53.6100 
 291   0.0000       1.986841        54.0647 
 292   0.0000       1.989049        54.1248 
 293   0.0000       1.996025        54.3146 
 294   0.0000       2.027515        55.1715 
 295   0.0000       2.034862        55.3714 
 296   0.0000       2.037236        55.4360 
 297   0.0000       2.042778        55.5868 
 298   0.0000       2.060871        56.0792 
 299   0.0000       2.071375        56.3650 
 300   0.0000       2.072298        56.3901 
 301   0.0000       2.083555        56.6964 
 302   0.0000       2.085321        56.7445 
 303   0.0000       2.092991        56.9532 
 304   0.0000       2.100894        57.1682 
 305   0.0000       2.114569        57.5404 
 306   0.0000       2.136816        58.1457 
 307   0.0000       2.145512        58.3823 
 308   0.0000       2.150827        58.5270 
 309   0.0000       2.160244        58.7832 
 310   0.0000       2.175762        59.2055 
 311   0.0000       2.207156        60.0598 
 312   0.0000       2.212808        60.2136 
 313   0.0000       2.223969        60.5173 
 314   0.0000       2.239957        60.9523 
 315   0.0000       2.246389        61.1273 
 316   0.0000       2.256412        61.4001 
 317   0.0000       2.259671        61.4888 
 318   0.0000       2.261179        61.5298 
 319   0.0000       2.267441        61.7002 
 320   0.0000       2.279957        62.0408 
 321   0.0000       2.295396        62.4609 
 322   0.0000       2.298791        62.5533 
 323   0.0000       2.310098        62.8610 
 324   0.0000       2.318310        63.0844 
 325   0.0000       2.324850        63.2624 
 326   0.0000       2.335785        63.5599 
 327   0.0000       2.338893        63.6445 
 328   0.0000       2.353173        64.0331 
 329   0.0000       2.357997        64.1644 
 330   0.0000       2.359803        64.2135 
 331   0.0000       2.373474        64.5855 
 332   0.0000       2.374753        64.6203 
 333   0.0000       2.381194        64.7956 
 334   0.0000       2.384500        64.8855 
 335   0.0000       2.395050        65.1726 
 336   0.0000       2.410016        65.5799 
 337   0.0000       2.423685        65.9518 
 338   0.0000       2.437824        66.3366 
 339   0.0000       2.453390        66.7601 
 340   0.0000       2.462885        67.0185 
 341   0.0000       2.470948        67.2379 
 342   0.0000       2.490539        67.7710 
 343   0.0000       2.507090        68.2214 
 344   0.0000       2.514389        68.4200 
 345   0.0000       2.539996        69.1168 
 346   0.0000       2.554433        69.5097 
 347   0.0000       2.595289        70.6214 
 348   0.0000       2.600857        70.7729 
 349   0.0000       2.636542        71.7440 
 350   0.0000       2.650188        72.1153 
 351   0.0000       2.665630        72.5355 
 352   0.0000       2.672134        72.7125 
 353   0.0000       2.681068        72.9556 
 354   0.0000       2.686791        73.1113 
 355   0.0000       2.688633        73.1614 
 356   0.0000       2.714394        73.8624 
 357   0.0000       2.733057        74.3702 
 358   0.0000       2.736102        74.4531 
 359   0.0000       2.758902        75.0735 
 360   0.0000       2.768045        75.3223 
 361   0.0000       2.776659        75.5567 
 362   0.0000       2.804480        76.3138 
 363   0.0000       2.813029        76.5464 
 364   0.0000       2.824727        76.8647 
 365   0.0000       2.851596        77.5959 
 366   0.0000       2.884070        78.4795 
 367   0.0000       2.896025        78.8049 
 368   0.0000       2.910730        79.2050 
 369   0.0000       2.921993        79.5115 
 370   0.0000       2.948648        80.2368 
 371   0.0000       2.960273        80.5531 
 372   0.0000       2.966398        80.7198 
 373   0.0000       2.992051        81.4178 
 374   0.0000       3.003581        81.7316 
 375   0.0000       3.030599        82.4668 
 376   0.0000       3.075624        83.6920 
 377   0.0000       3.090718        84.1027 
 378   0.0000       3.098805        84.3228 
 379   0.0000       3.103599        84.4532 
 380   0.0000       3.120158        84.9038 
 381   0.0000       3.133748        85.2736 
 382   0.0000       3.157052        85.9078 
 383   0.0000       3.174469        86.3817 
 384   0.0000       3.194744        86.9334 
 385   0.0000       3.212170        87.4076 
 386   0.0000       3.227658        87.8290 
 387   0.0000       3.233498        87.9880 
 388   0.0000       3.248563        88.3979 
 389   0.0000       3.255039        88.5741 
 390   0.0000       3.262375        88.7737 
 391   0.0000       3.268613        88.9435 
 392   0.0000       3.278152        89.2031 
 393   0.0000       3.280512        89.2673 
 394   0.0000       3.289610        89.5148 
 395   0.0000       3.291649        89.5703 
 396   0.0000       3.301482        89.8379 
 397   0.0000       3.316674        90.2513 
 398   0.0000       3.321710        90.3883 
 399   0.0000       3.332350        90.6778 
 400   0.0000       3.333182        90.7005 
 401   0.0000       3.338907        90.8563 
 402   0.0000       3.347765        91.0973 
 403   0.0000       3.363754        91.5324 
 404   0.0000       3.403690        92.6191 
 405   0.0000       3.408656        92.7542 
 406   0.0000       3.412004        92.8453 
 407   0.0000       3.425118        93.2022 
 408   0.0000       3.433506        93.4304 
 409   0.0000       3.440409        93.6183 
 410   0.0000       3.455606        94.0318 
 411   0.0000       3.469364        94.4062 
 412   0.0000       3.471565        94.4661 
 413   0.0000       3.488489        94.9266 
 414   0.0000       3.503028        95.3222 
 415   0.0000       3.517927        95.7277 
 416   0.0000       3.534911        96.1898 
 417   0.0000       3.584937        97.5511 
 418   0.0000       3.594197        97.8031 
 419   0.0000       3.613340        98.3240 
 420   0.0000       3.627347        98.7051 
 421   0.0000       3.646084        99.2150 
 422   0.0000       3.681467       100.1778 
 423   0.0000       3.692830       100.4870 
 424   0.0000       3.717144       101.1486 
 425   0.0000       3.754531       102.1660 
 426   0.0000       3.802859       103.4810 
 427   0.0000       3.840339       104.5009 
 428   0.0000       3.989126       108.5496 
 429   0.0000       4.068385       110.7064 
 430   0.0000       4.080338       111.0317 
 431   0.0000       4.110196       111.8441 
 432   0.0000       4.137140       112.5773 
 433   0.0000       4.146315       112.8270 
 434   0.0000       4.259459       115.9058 
 435   0.0000       4.361759       118.6895 
 436   0.0000       4.447599       121.0253 
 437   0.0000       4.587474       124.8315 
 438   0.0000       4.689354       127.6038 
 439   0.0000       4.792140       130.4008 
 440   0.0000      21.452377       583.7489 
 441   0.0000      21.473200       584.3155 
 442   0.0000      21.876825       595.2987 
 443   0.0000      21.928197       596.6966 
 444   0.0000      22.016727       599.1056 
 445   0.0000      22.048716       599.9761 
 446   0.0000      22.076007       600.7187 
 447   0.0000      22.144199       602.5743 
 448   0.0000      22.189470       603.8062 
 449   0.0000      22.194336       603.9386 
 450   0.0000      22.228791       604.8762 
 451   0.0000      22.252239       605.5142 
 452   0.0000      22.329732       607.6229 
 453   0.0000      22.347874       608.1166 
 454   0.0000      32.073116       872.7539 
 455   0.0000      43.605016      1186.5528 
 456   0.0000      43.731134      1189.9847 
 457   0.0000      57.182416      1556.0126 
 458   0.0000      57.195872      1556.3788 
 459   0.0000      57.283391      1558.7603 
Total SCF time: 0 days 0 hours 0 min 21 sec 

Maximum memory used throughout the entire SCF-calculation: 86.4 MB


-------------------------------------------------------------------------------
                          DFT DISPERSION CORRECTION                            
                                                                               
                                 DFTD4 V2.5                                    
-------------------------------------------------------------------------------
Starting D4
-------------------------   ----------------
Dispersion correction           -0.013337724
-------------------------   ----------------

------------------   -----------------
gCP correction             0.017486961
------------------   -----------------

-------------------------   --------------------
FINAL SINGLE POINT ENERGY     -1044.163142382449
-------------------------   --------------------

                                *** OPTIMIZATION RUN DONE ***

                            ***************************************
                            *     ORCA property calculations      *
                            ***************************************

                                    ---------------------
                                    Active property flags
                                    ---------------------
   (+) Dipole Moment


------------------------------------------------------------------------------
                       ORCA ELECTRIC PROPERTIES CALCULATION
------------------------------------------------------------------------------

Dipole Moment Calculation                       ... on
Quadrupole Moment Calculation                   ... off
Polarizability Calculation                      ... off
GBWName                                         ... opt_1.gbw
Electron density                                ... opt_1.scfp
The origin for moment calculation is the CENTER OF MASS  = ( 0.003805,  0.011326  0.005179)

-------------
DIPOLE MOMENT
-------------
                                X             Y             Z
Electronic contribution:    -22.86092      -2.33044     -11.93871
Nuclear contribution   :     24.88888       2.70321      14.84791
                        -----------------------------------------
Total Dipole Moment    :      2.02796       0.37277       2.90919
                        -----------------------------------------
Magnitude (a.u.)       :      3.56581
Magnitude (Debye)      :      9.06356



--------------------
Rotational spectrum 
--------------------
 
Rotational constants in cm-1:     0.023177     0.005216     0.004569 
Rotational constants in MHz :   694.842464   156.366865   136.989257 

 Dipole components along the rotational axes: 
x,y,z [a.u.] :    -2.357204    -2.615373     0.564261 
x,y,z [Debye]:    -5.991537    -6.647751     1.434237 

 

Timings for individual modules:

Sum of individual times         ...      298.800 sec (=   4.980 min)
GTO integral calculation        ...       15.085 sec (=   0.251 min)   5.0 %
SCF iterations                  ...      245.218 sec (=   4.087 min)  82.1 %
SCF Gradient evaluation         ...       37.849 sec (=   0.631 min)  12.7 %
Geometry relaxation             ...        0.648 sec (=   0.011 min)   0.2 %
                             ****ORCA TERMINATED NORMALLY****
TOTAL RUN TIME: 0 days 0 hours 5 minutes 9 seconds 270 msec
