
                                 *****************
                                 * O   R   C   A *
                                 *****************

                                            #,                                       
                                            ###                                      
                                            ####                                     
                                            #####                                    
                                            ######                                   
                                           ########,                                 
                                     ,,################,,,,,                         
                               ,,#################################,,                 
                          ,,##########################################,,             
                       ,#########################################, ''#####,          
                    ,#############################################,,   '####,        
                  ,##################################################,,,,####,       
                ,###########''''           ''''###############################       
              ,#####''   ,,,,##########,,,,          '''####'''          '####       
            ,##' ,,,,###########################,,,                        '##       
           ' ,,###''''                  '''############,,,                           
         ,,##''                                '''############,,,,        ,,,,,,###''
      ,#''                                            '''#######################'''  
     '                                                          ''''####''''         
             ,#######,   #######,   ,#######,      ##                                
            ,#'     '#,  ##    ##  ,#'     '#,    #''#        ######   ,####,        
            ##       ##  ##   ,#'  ##            #'  '#       #        #'  '#        
            ##       ##  #######   ##           ,######,      #####,   #    #        
            '#,     ,#'  ##    ##  '#,     ,#' ,#      #,         ##   #,  ,#        
             '#######'   ##     ##  '#######'  #'      '#     #####' # '####'        



                  #######################################################
                  #                        -***-                        #
                  #          Department of theory and spectroscopy      #
                  #    Directorship and core code : Frank Neese         #
                  #        Max Planck Institute fuer Kohlenforschung    #
                  #                Kaiser Wilhelm Platz 1               #
                  #                 D-45470 Muelheim/Ruhr               #
                  #                      Germany                        #
                  #                                                     #
                  #                  All rights reserved                #
                  #                        -***-                        #
                  #######################################################


                         Program Version 5.0.1 -  RELEASE  -


 With contributions from (in alphabetic order):
   Daniel Aravena         : Magnetic Suceptibility
   Michael Atanasov       : Ab Initio Ligand Field Theory (pilot matlab implementation)
   Alexander A. Auer      : GIAO ZORA, VPT2 properties, NMR spectrum
   Ute Becker             : Parallelization
   Giovanni Bistoni       : ED, misc. LED, open-shell LED, HFLD
   Martin Brehm           : Molecular dynamics
   Dmytro Bykov           : SCF Hessian
   Vijay G. Chilkuri      : MRCI spin determinant printing, contributions to CSF-ICE
   Dipayan Datta          : RHF DLPNO-CCSD density
   Achintya Kumar Dutta   : EOM-CC, STEOM-CC
   Dmitry Ganyushin       : Spin-Orbit,Spin-Spin,Magnetic field MRCI
   Miquel Garcia          : C-PCM and meta-GGA Hessian, CC/C-PCM, Gaussian charge scheme
   Yang Guo               : DLPNO-NEVPT2, F12-NEVPT2, CIM, IAO-localization
   Andreas Hansen         : Spin unrestricted coupled pair/coupled cluster methods
   Benjamin Helmich-Paris : MC-RPA, TRAH-SCF, COSX integrals
   Lee Huntington         : MR-EOM, pCC
   Robert Izsak           : Overlap fitted RIJCOSX, COSX-SCS-MP3, EOM
   Marcus Kettner         : VPT2
   Christian Kollmar      : KDIIS, OOCD, Brueckner-CCSD(T), CCSD density, CASPT2, CASPT2-K
   Simone Kossmann        : Meta GGA functionals, TD-DFT gradient, OOMP2, MP2 Hessian
   Martin Krupicka        : Initial AUTO-CI
   Lucas Lang             : DCDCAS
   Marvin Lechner         : AUTO-CI (C++ implementation), FIC-MRCC
   Dagmar Lenk            : GEPOL surface, SMD
   Dimitrios Liakos       : Extrapolation schemes; Compound Job, initial MDCI parallelization
   Dimitrios Manganas     : Further ROCIS development; embedding schemes
   Dimitrios Pantazis     : SARC Basis sets
   Anastasios Papadopoulos: AUTO-CI, single reference methods and gradients
   Taras Petrenko         : DFT Hessian,TD-DFT gradient, ASA, ECA, R-Raman, ABS, FL, XAS/XES, NRVS
   Peter Pinski           : DLPNO-MP2, DLPNO-MP2 Gradient
   Christoph Reimann      : Effective Core Potentials
   Marius Retegan         : Local ZFS, SOC
   Christoph Riplinger    : Optimizer, TS searches, QM/MM, DLPNO-CCSD(T), (RO)-DLPNO pert. Triples
   Tobias Risthaus        : Range-separated hybrids, TD-DFT gradient, RPA, STAB
   Michael Roemelt        : Original ROCIS implementation
   Masaaki Saitow         : Open-shell DLPNO-CCSD energy and density
   Barbara Sandhoefer     : DKH picture change effects
   Avijit Sen             : IP-ROCIS
   Kantharuban Sivalingam : CASSCF convergence, NEVPT2, FIC-MRCI
   Bernardo de Souza      : ESD, SOC TD-DFT
   Georgi Stoychev        : AutoAux, RI-MP2 NMR, DLPNO-MP2 response
   Willem Van den Heuvel  : Paramagnetic NMR
   Boris Wezisla          : Elementary symmetry handling
   Frank Wennmohs         : Technical directorship


 We gratefully acknowledge several colleagues who have allowed us to
 interface, adapt or use parts of their codes:
   Stefan Grimme, W. Hujo, H. Kruse, P. Pracht,  : VdW corrections, initial TS optimization,
                  C. Bannwarth, S. Ehlert          DFT functionals, gCP, sTDA/sTD-DF
   Ed Valeev, F. Pavosevic, A. Kumar             : LibInt (2-el integral package), F12 methods
   Garnet Chan, S. Sharma, J. Yang, R. Olivares  : DMRG
   Ulf Ekstrom                                   : XCFun DFT Library
   Mihaly Kallay                                 : mrcc  (arbitrary order and MRCC methods)
   Jiri Pittner, Ondrej Demel                    : Mk-CCSD
   Frank Weinhold                                : gennbo (NPA and NBO analysis)
   Christopher J. Cramer and Donald G. Truhlar   : smd solvation model
   Lars Goerigk                                  : TD-DFT with DH, B97 family of functionals
   V. Asgeirsson, H. Jonsson                     : NEB implementation
   FAccTs GmbH                                   : IRC, NEB, NEB-TS, DLPNO-Multilevel, CI-OPT
                                                   MM, QMMM, 2- and 3-layer-ONIOM, Crystal-QMMM,
                                                   LR-CPCM, SF, NACMEs, symmetry and pop. for TD-DFT,
                                                   nearIR, NL-DFT gradient (VV10), updates on ESD,
                                                   ML-optimized integration grids
   S Lehtola, MJT Oliveira, MAL Marques          : LibXC Library
   Liviu Ungur et al                             : ANISO software


 Your calculation uses the libint2 library for the computation of 2-el integrals
 For citations please refer to: http://libint.valeyev.net

 Your ORCA version has been built with support for libXC version: 5.1.0
 For citations please refer to: https://tddft.org/programs/libxc/

 This ORCA versions uses:
   CBLAS   interface :  Fast vector & matrix operations
   LAPACKE interface :  Fast linear algebra routines
   SCALAPACK package :  Parallel linear algebra routines
   Shared memory     :  Shared parallel matrices
   BLAS/LAPACK       :  OpenBLAS 0.3.15  USE64BITINT DYNAMIC_ARCH NO_AFFINITY SkylakeX SINGLE_THREADED
        Core in use  :  SkylakeX
   Copyright (c) 2011-2014, The OpenBLAS Project


Your calculation utilizes the geometrical counterpoise correction gCP
Please cite in your paper:
H.Kruse, S. Grimme J.Chem.Phys., 136, (2012), 154101 
   

Your calculation utilizes the atom-pairwise dispersion correction
based on tight binding partial charges (D4)
Cite in your paper:
E.Caldeweyher, C.Bannwarth, S.Grimme, J.Chem.Phys., (2017), 147, 034112.
E.Caldeweyher, S.Ehlert, A.Hansen, H.Neugebauer, S.Grimme, J.Chem.Phys., (2018), in progress.
   

Your calculation utilizes the SMD solvation module
Please cite in your paper:
A.V. Marenich, C.J. Cramer, D.G. Truhlar J. Phys. Chem. B, 113, (2009), 6378 

================================================================================

----- Orbital basis set information -----
Your calculation utilizes the basis: def2-mTZVPP
   Stefan Grimme, Andreas Hansen, Sebastian Ehlert, and Jan-Michael Mewes 
   J. Chem. Phys. 154, 000000 (2021). DOI: 10.1063/5.0040021

----- AuxJ basis set information -----
Your calculation utilizes the basis: def2-mTZVPP/J
   Stefan Grimme, Andreas Hansen, Sebastian Ehlert, and Jan-Michael Mewes 
   J. Chem. Phys. 154, 000000 (2021). DOI: 10.1063/5.0040021

================================================================================
                                        WARNINGS
                       Please study these warnings very carefully!
================================================================================

Using LibXC functional ID 497 : Re-regularized SCAN exchange by Furness et al
[ 1]  J. W. Furness, A. D. Kaplan, J. Ning, J. P. Perdew, and J. Sun, J. Phys. Chem. Lett. 11, 8208 (2020)
[ 2]  J. W. Furness, A. D. Kaplan, J. Ning, J. P. Perdew, and J. Sun, J. Phys. Chem. Lett. 11, 9248 (2020)
Using LibXC functional ID 498 : Re-regularized SCAN correlation by Furness et al
[ 1]  J. W. Furness, A. D. Kaplan, J. Ning, J. P. Perdew, and J. Sun, J. Phys. Chem. Lett. 11, 8208 (2020)
[ 2]  J. W. Furness, A. D. Kaplan, J. Ning, J. P. Perdew, and J. Sun, J. Phys. Chem. Lett. 11, 9248 (2020)
Using LibXC functional ID 497 : Re-regularized SCAN exchange by Furness et al
[ 1]  J. W. Furness, A. D. Kaplan, J. Ning, J. P. Perdew, and J. Sun, J. Phys. Chem. Lett. 11, 8208 (2020)
[ 2]  J. W. Furness, A. D. Kaplan, J. Ning, J. P. Perdew, and J. Sun, J. Phys. Chem. Lett. 11, 9248 (2020)
Using LibXC functional ID 498 : Re-regularized SCAN correlation by Furness et al
[ 1]  J. W. Furness, A. D. Kaplan, J. Ning, J. P. Perdew, and J. Sun, J. Phys. Chem. Lett. 11, 8208 (2020)
[ 2]  J. W. Furness, A. D. Kaplan, J. Ning, J. P. Perdew, and J. Sun, J. Phys. Chem. Lett. 11, 9248 (2020)

INFO   : the flag for use of the SHARK integral package has been found!

================================================================================
                                       INPUT FILE
================================================================================
NAME = opt_2.inp
|  1> ! r2SCAN-3c opt tightSCF noautostart miniprint nopop
|  2> %maxcore  7000
|  3> %pal nprocs   48 end
|  4> %cpcm
|  5> smd true
|  6> SMDsolvent "water"
|  7> end
|  8> * xyz   0   1
|  9> C 3.317 2.574 0.592
| 10> C 2.016 2.547 1.079
| 11> C 1.270 1.391 1.014
| 12> C 1.791 0.222 0.444
| 13> C 3.119 0.247 -0.050
| 14> C 3.858 1.432 0.045
| 15> C 3.734 -0.961 -0.624
| 16> O 3.366 -2.098 -0.364
| 17> O 4.748 -0.806 -1.476
| 18> N 1.067 -0.941 0.413
| 19> C -0.300 -1.110 0.418
| 20> C -0.816 -2.348 0.817
| 21> C -2.175 -2.580 0.831
| 22> C -3.062 -1.589 0.441
| 23> C -2.550 -0.371 0.011
| 24> C -1.188 -0.122 -0.016
| 25> C -3.514 0.675 -0.454
| 26> F -4.179 0.313 -1.577
| 27> F -4.480 0.938 0.455
| 28> F -2.948 1.861 -0.736
| 29> H 3.906 3.474 0.660
| 30> H 1.592 3.428 1.534
| 31> H 0.285 1.365 1.450
| 32> H 4.891 1.448 -0.269
| 33> H 4.927 0.122 -1.712
| 34> H 1.626 -1.783 0.300
| 35> H -0.131 -3.125 1.118
| 36> H -2.554 -3.537 1.150
| 37> H -4.128 -1.753 0.456
| 38> H -0.822 0.817 -0.398
| 39> *
| 40> 
| 41>                          ****END OF INPUT****
================================================================================

                       *****************************
                       * Geometry Optimization Run *
                       *****************************

Geometry optimization settings:
Update method            Update   .... BFGS
Choice of coordinates    CoordSys .... Z-matrix Internals
Initial Hessian          InHess   .... Almoef's Model

Convergence Tolerances:
Energy Change            TolE     ....  5.0000e-06 Eh
Max. Gradient            TolMAXG  ....  3.0000e-04 Eh/bohr
RMS Gradient             TolRMSG  ....  1.0000e-04 Eh/bohr
Max. Displacement        TolMAXD  ....  4.0000e-03 bohr
RMS Displacement         TolRMSD  ....  2.0000e-03 bohr
Strict Convergence                ....  False
------------------------------------------------------------------------------
                        ORCA OPTIMIZATION COORDINATE SETUP
------------------------------------------------------------------------------

The optimization will be done in new redundant internal coordinates
Making redundant internal coordinates   ...  (new redundants) done
Evaluating the initial hessian          ...  (Almloef) done
Evaluating the coordinates              ...  done
Calculating the B-matrix                .... done
Calculating the G-matrix                .... done
Diagonalizing the G-matrix              .... done
Small eigenvalue found = 3.994e-03
Small eigenvalue found = 1.529e-02
Small eigenvalue found = 1.733e-02
The first mode is                       ....   64
The number of degrees of freedom        ....   84

    -----------------------------------------------------------------
                    Redundant Internal Coordinates


    -----------------------------------------------------------------
         Definition                    Initial Value    Approx d2E/dq
    -----------------------------------------------------------------
      1. B(C   1,C   0)                  1.3894         0.626120   
      2. B(C   2,C   1)                  1.3773         0.654531   
      3. B(C   3,C   2)                  1.4010         0.599972   
      4. B(C   4,C   3)                  1.4171         0.565537   
      5. B(C   5,C   4)                  1.3998         0.602757   
      6. B(C   5,C   0)                  1.3770         0.655424   
      7. B(C   6,C   4)                  1.4721         0.462184   
      8. B(O   7,C   6)                  1.2230         1.033407   
      9. B(O   8,C   6)                  1.3335         0.688772   
     10. B(N   9,C   3)                  1.3703         0.601610   
     11. B(C  10,N   9)                  1.3774         0.586074   
     12. B(C  11,C  10)                  1.3993         0.603763   
     13. B(C  12,C  11)                  1.3787         0.651203   
     14. B(C  13,C  12)                  1.3860         0.634084   
     15. B(C  14,C  13)                  1.3894         0.626063   
     16. B(C  15,C  14)                  1.3848         0.636760   
     17. B(C  15,C  10)                  1.3975         0.607787   
     18. B(C  16,C  14)                  1.4965         0.422433   
     19. B(F  17,C  16)                  1.3544         0.592605   
     20. B(F  18,C  16)                  1.3523         0.597282   
     21. B(F  19,C  16)                  1.3441         0.615565   
     22. B(H  20,C   0)                  1.0777         0.376675   
     23. B(H  21,C   1)                  1.0784         0.375767   
     24. B(H  22,C   2)                  1.0775         0.377027   
     25. B(H  23,C   5)                  1.0798         0.373866   
     26. B(H  24,O   8)                  0.9741         0.493662   
     27. B(H  25,N   9)                  1.0170         0.421780   
     28. B(H  26,C  11)                  1.0787         0.375388   
     29. B(H  27,C  12)                  1.0776         0.376864   
     30. B(H  28,C  13)                  1.0786         0.375438   
     31. B(H  29,C  15)                  1.0778         0.376639   
     32. A(C   5,C   0,H  20)          120.1933         0.358985   
     33. A(C   1,C   0,H  20)          120.3872         0.356204   
     34. A(C   1,C   0,C   5)          119.4069         0.439211   
     35. A(C   0,C   1,C   2)          120.4590         0.439103   
     36. A(C   2,C   1,H  21)          119.5129         0.358754   
     37. A(C   0,C   1,H  21)          120.0106         0.356058   
     38. A(C   1,C   2,C   3)          121.2037         0.435739   
     39. A(C   1,C   2,H  22)          119.7544         0.358959   
     40. A(C   3,C   2,H  22)          118.9756         0.353693   
     41. A(C   2,C   3,C   4)          118.3973         0.424457   
     42. A(C   4,C   3,N   9)          120.1464         0.421902   
     43. A(C   2,C   3,N   9)          121.3917         0.426385   
     44. A(C   3,C   4,C   5)          119.0790         0.424809   
     45. A(C   5,C   4,C   6)          120.0401         0.409815   
     46. A(C   3,C   4,C   6)          120.8609         0.405220   
     47. A(C   0,C   5,C   4)          121.4423         0.436209   
     48. A(C   4,C   5,H  23)          119.8595         0.353466   
     49. A(C   0,C   5,H  23)          118.6264         0.358528   
     50. A(C   4,C   6,O   8)          118.1281         0.416928   
     51. A(O   7,C   6,O   8)          118.2097         0.479198   
     52. A(C   4,C   6,O   7)          123.6622         0.448466   
     53. A(C   6,O   8,H  24)          113.9075         0.373528   
     54. A(C   3,N   9,C  10)          128.9328         0.421839   
     55. A(C  10,N   9,H  25)          116.3810         0.353719   
     56. A(C   3,N   9,H  25)          114.5064         0.355291   
     57. A(N   9,C  10,C  11)          118.3949         0.424872   
     58. A(C  11,C  10,C  15)          118.6663         0.430459   
     59. A(N   9,C  10,C  15)          122.8704         0.425377   
     60. A(C  12,C  11,H  26)          120.1260         0.358381   
     61. A(C  10,C  11,H  26)          118.8604         0.353809   
     62. A(C  10,C  11,C  12)          121.0135         0.435833   
     63. A(C  13,C  12,H  27)          119.5513         0.357000   
     64. A(C  11,C  12,H  27)          119.9413         0.358621   
     65. A(C  11,C  12,C  13)          120.5072         0.439701   
     66. A(C  14,C  13,H  28)          120.1163         0.356000   
     67. A(C  12,C  13,H  28)          121.3222         0.356770   
     68. A(C  12,C  13,C  14)          118.5577         0.436590   
     69. A(C  15,C  14,C  16)          120.1190         0.407279   
     70. A(C  13,C  14,C  16)          118.1313         0.406061   
     71. A(C  13,C  14,C  15)          121.7401         0.436921   
     72. A(C  14,C  15,H  29)          119.8381         0.357219   
     73. A(C  10,C  15,H  29)          120.6792         0.354407   
     74. A(C  10,C  15,C  14)          119.4566         0.434596   
     75. A(F  18,C  16,F  19)          105.6790         0.421266   
     76. A(F  17,C  16,F  19)          105.5836         0.420675   
     77. A(C  14,C  16,F  19)          114.2478         0.400502   
     78. A(F  17,C  16,F  18)          104.9869         0.418420   
     79. A(C  14,C  16,F  18)          112.7821         0.398383   
     80. A(C  14,C  16,F  17)          112.7737         0.397833   
     81. D(C   2,C   1,C   0,H  20)   -178.8626         0.027160   
     82. D(H  21,C   1,C   0,H  20)     -0.3922         0.027160   
     83. D(C   2,C   1,C   0,C   5)     -0.1545         0.027160   
     84. D(H  21,C   1,C   0,C   5)    178.3159         0.027160   
     85. D(H  22,C   2,C   1,C   0)    176.1976         0.029858   
     86. D(H  22,C   2,C   1,H  21)     -2.2803         0.029858   
     87. D(C   3,C   2,C   1,C   0)     -0.8114         0.029858   
     88. D(C   3,C   2,C   1,H  21)   -179.2894         0.029858   
     89. D(N   9,C   3,C   2,H  22)      1.0042         0.024815   
     90. D(N   9,C   3,C   2,C   1)    178.0360         0.024815   
     91. D(C   4,C   3,C   2,H  22)   -176.0758         0.024815   
     92. D(C   4,C   3,C   2,C   1)      0.9561         0.024815   
     93. D(C   6,C   4,C   3,C   2)    178.2124         0.021925   
     94. D(C   5,C   4,C   3,N   9)   -177.2784         0.021925   
     95. D(C   5,C   4,C   3,C   2)     -0.1608         0.021925   
     96. D(C   6,C   4,C   3,N   9)      1.0949         0.021925   
     97. D(H  23,C   5,C   4,C   6)     -2.3063         0.025059   
     98. D(C   0,C   5,C   4,C   6)   -179.1821         0.025059   
     99. D(C   0,C   5,C   4,C   3)     -0.7952         0.025059   
    100. D(H  23,C   5,C   0,H  20)      2.7575         0.029946   
    101. D(H  23,C   5,C   0,C   1)   -175.9531         0.029946   
    102. D(H  23,C   5,C   4,C   3)    176.0806         0.025059   
    103. D(C   4,C   5,C   0,H  20)    179.6708         0.029946   
    104. D(C   4,C   5,C   0,C   1)      0.9601         0.029946   
    105. D(O   8,C   6,C   4,C   5)    -24.8931         0.014550   
    106. D(O   8,C   6,C   4,C   3)    156.7492         0.014550   
    107. D(O   7,C   6,C   4,C   5)    155.1791         0.014550   
    108. D(O   7,C   6,C   4,C   3)    -23.1786         0.014550   
    109. D(H  24,O   8,C   6,O   7)    173.7766         0.035418   
    110. D(H  24,O   8,C   6,C   4)     -6.1552         0.035418   
    111. D(C  10,N   9,C   3,C   2)     26.2606         0.029175   
    112. D(H  25,N   9,C   3,C   4)     18.1842         0.029175   
    113. D(H  25,N   9,C   3,C   2)   -158.8454         0.029175   
    114. D(C  10,N   9,C   3,C   4)   -156.7099         0.029175   
    115. D(C  15,C  10,N   9,H  25)   -151.1341         0.027587   
    116. D(C  15,C  10,N   9,C   3)     23.6796         0.027587   
    117. D(C  11,C  10,N   9,H  25)     25.8154         0.027587   
    118. D(C  11,C  10,N   9,C   3)   -159.3709         0.027587   
    119. D(H  26,C  11,C  10,C  15)    177.7741         0.025147   
    120. D(H  26,C  11,C  10,N   9)      0.6940         0.025147   
    121. D(C  12,C  11,C  10,C  15)     -2.3410         0.025147   
    122. D(C  12,C  11,C  10,N   9)   -179.4211         0.025147   
    123. D(H  27,C  12,C  11,H  26)      0.4406         0.029534   
    124. D(H  27,C  12,C  11,C  10)   -179.4428         0.029534   
    125. D(C  13,C  12,C  11,H  26)   -179.7529         0.029534   
    126. D(C  13,C  12,C  11,C  10)      0.3636         0.029534   
    127. D(H  28,C  13,C  12,H  27)      0.4112         0.027900   
    128. D(H  28,C  13,C  12,C  11)   -179.3960         0.027900   
    129. D(C  14,C  13,C  12,H  27)   -178.8769         0.027900   
    130. D(C  14,C  13,C  12,C  11)      1.3159         0.027900   
    131. D(C  16,C  14,C  13,H  28)     -1.4369         0.027155   
    132. D(C  16,C  14,C  13,C  12)    177.8600         0.027155   
    133. D(C  15,C  14,C  13,H  28)    179.6896         0.027155   
    134. D(C  15,C  14,C  13,C  12)     -1.0134         0.027155   
    135. D(H  29,C  15,C  14,C  16)     -1.6691         0.028152   
    136. D(H  29,C  15,C  14,C  13)    177.1824         0.028152   
    137. D(C  10,C  15,C  14,C  16)   -179.8238         0.028152   
    138. D(C  10,C  15,C  14,C  13)     -0.9723         0.028152   
    139. D(H  29,C  15,C  10,C  11)   -175.5256         0.025502   
    140. D(H  29,C  15,C  10,N   9)      1.4161         0.025502   
    141. D(C  14,C  15,C  10,C  11)      2.6133         0.025502   
    142. D(C  14,C  15,C  10,N   9)    179.5549         0.025502   
    143. D(F  17,C  16,C  14,C  13)    -65.1946         0.013191   
    144. D(F  19,C  16,C  14,C  15)     -6.8759         0.013191   
    145. D(F  19,C  16,C  14,C  13)    174.2317         0.013191   
    146. D(F  18,C  16,C  14,C  15)   -127.5831         0.013191   
    147. D(F  18,C  16,C  14,C  13)     53.5245         0.013191   
    148. D(F  17,C  16,C  14,C  15)    113.6978         0.013191   
    -----------------------------------------------------------------

Number of atoms                         .... 30
Number of degrees of freedom            .... 148

         *************************************************************
         *                GEOMETRY OPTIMIZATION CYCLE   1            *
         *************************************************************
---------------------------------
CARTESIAN COORDINATES (ANGSTROEM)
---------------------------------
  C      3.317000    2.574000    0.592000
  C      2.016000    2.547000    1.079000
  C      1.270000    1.391000    1.014000
  C      1.791000    0.222000    0.444000
  C      3.119000    0.247000   -0.050000
  C      3.858000    1.432000    0.045000
  C      3.734000   -0.961000   -0.624000
  O      3.366000   -2.098000   -0.364000
  O      4.748000   -0.806000   -1.476000
  N      1.067000   -0.941000    0.413000
  C     -0.300000   -1.110000    0.418000
  C     -0.816000   -2.348000    0.817000
  C     -2.175000   -2.580000    0.831000
  C     -3.062000   -1.589000    0.441000
  C     -2.550000   -0.371000    0.011000
  C     -1.188000   -0.122000   -0.016000
  C     -3.514000    0.675000   -0.454000
  F     -4.179000    0.313000   -1.577000
  F     -4.480000    0.938000    0.455000
  F     -2.948000    1.861000   -0.736000
  H      3.906000    3.474000    0.660000
  H      1.592000    3.428000    1.534000
  H      0.285000    1.365000    1.450000
  H      4.891000    1.448000   -0.269000
  H      4.927000    0.122000   -1.712000
  H      1.626000   -1.783000    0.300000
  H     -0.131000   -3.125000    1.118000
  H     -2.554000   -3.537000    1.150000
  H     -4.128000   -1.753000    0.456000
  H     -0.822000    0.817000   -0.398000

----------------------------
CARTESIAN COORDINATES (A.U.)
----------------------------
  NO LB      ZA    FRAG     MASS         X           Y           Z
   0 C     6.0000    0    12.011    6.268222    4.864155    1.118718
   1 C     6.0000    0    12.011    3.809688    4.813132    2.039014
   2 C     6.0000    0    12.011    2.399952    2.628609    1.916182
   3 C     6.0000    0    12.011    3.384500    0.419519    0.839038
   4 C     6.0000    0    12.011    5.894056    0.466762   -0.094486
   5 C     6.0000    0    12.011    7.290563    2.706088    0.085038
   6 C     6.0000    0    12.011    7.056237   -1.816027   -1.179189
   7 O     8.0000    0    15.999    6.360818   -3.964645   -0.687860
   8 O     8.0000    0    15.999    8.972420   -1.523119   -2.789236
   9 N     7.0000    0    14.007    2.016338   -1.778232    0.780457
  10 C     6.0000    0    12.011   -0.566918   -2.097596    0.789906
  11 C     6.0000    0    12.011   -1.542017   -4.437077    1.543906
  12 C     6.0000    0    12.011   -4.110154   -4.875493    1.570362
  13 C     6.0000    0    12.011   -5.786341   -3.002775    0.833369
  14 C     6.0000    0    12.011   -4.818802   -0.701088    0.020787
  15 C     6.0000    0    12.011   -2.244995   -0.230547   -0.030236
  16 C     6.0000    0    12.011   -6.640498    1.275565   -0.857936
  17 F     9.0000    0    18.998   -7.897166    0.591484   -2.980098
  18 F     9.0000    0    18.998   -8.465973    1.772563    0.859825
  19 F     9.0000    0    18.998   -5.570913    3.516780   -1.390838
  20 H     1.0000    0     1.008    7.381270    6.564909    1.247219
  21 H     1.0000    0     1.008    3.008444    6.477981    2.898840
  22 H     1.0000    0     1.008    0.538572    2.579476    2.740103
  23 H     1.0000    0     1.008    9.242651    2.736323   -0.508336
  24 H     1.0000    0     1.008    9.310681    0.230547   -3.235211
  25 H     1.0000    0     1.008    3.072695   -3.369382    0.566918
  26 H     1.0000    0     1.008   -0.247554   -5.905394    2.112714
  27 H     1.0000    0     1.008   -4.826361   -6.683961    2.173185
  28 H     1.0000    0     1.008   -7.800789   -3.312690    0.861715
  29 H     1.0000    0     1.008   -1.553355    1.543906   -0.752111



           ************************************************************
           *        Program running with 48 parallel MPI-processes    *
           *              working on a common directory               *
           ************************************************************
------------------------------------------------------------------------------
                   ___                                                        
                  /   \      - P O W E R E D   B Y -                         
                 /     \                                                     
                 |  |  |   _    _      __       _____    __    __             
                 |  |  |  | |  | |    /  \     |  _  \  |  |  /  |          
                  \  \/   | |  | |   /    \    | | | |  |  | /  /          
                 / \  \   | |__| |  /  /\  \   | |_| |  |  |/  /          
                |  |  |   |  __  | /  /__\  \  |    /   |      \           
                |  |  |   | |  | | |   __   |  |    \   |  |\   \          
                \     /   | |  | | |  |  |  |  | |\  \  |  | \   \       
                 \___/    |_|  |_| |__|  |__|  |_| \__\ |__|  \__/        
                                                                              
                      - O R C A' S   B I G   F R I E N D -                    
                                      &                                       
                       - I N T E G R A L  F E E D E R -                       
                                                                              
 v1 FN, 2020, v2 2021                                                         
------------------------------------------------------------------------------


Reading SHARK input file opt_2.SHARKINP.tmp ... ok
----------------------
SHARK INTEGRAL PACKAGE
----------------------

Number of atoms                             ...     30
Number of basis functions                   ...    460
Number of shells                            ...    216
Maximum angular momentum                    ...      2
Integral batch strategy                     ... SHARK/LIBINT Hybrid
RI-J (if used) integral strategy            ... SPLIT-RIJ (Revised 2003 algorithm where possible)
Printlevel                                  ...      1
Contraction scheme used                     ... SEGMENTED contraction
Coulomb Range Separation                    ... NOT USED
Exchange Range Separation                   ... NOT USED
Finite Nucleus Model                        ... NOT USED
Auxiliary Coulomb fitting basis             ... AVAILABLE
   # of basis functions in Aux-J            ...    725
   # of shells in Aux-J                     ...    293
   Maximum angular momentum in Aux-J        ...      2
Auxiliary J/K fitting basis                 ... NOT available
Auxiliary Correlation fitting basis         ... NOT available
Auxiliary 'external' fitting basis          ... NOT available
Integral threshold                          ...     2.500000e-11
Primitive cut-off                           ...     2.500000e-12
Primitive pair pre-selection threshold      ...     2.500000e-12

Calculating pre-screening integrals         ... done (  0.1 sec) Dimension = 216
Organizing shell pair data                  ... done (  0.1 sec)
Shell pair information
Total number of shell pairs                 ...     23436
Shell pairs after pre-screening             ...     16659
Total number of primitive shell pairs       ...     87206
Primitive shell pairs kept                  ...     39612
          la=0 lb=0:   4857 shell pairs
          la=1 lb=0:   6199 shell pairs
          la=1 lb=1:   1980 shell pairs
          la=2 lb=0:   2060 shell pairs
          la=2 lb=1:   1329 shell pairs
          la=2 lb=2:    234 shell pairs

Calculating one electron integrals          ... done (  0.0 sec)
Calculating RI/J V-Matrix + Cholesky decomp.... done (  0.0 sec)
Calculating Nuclear repulsion               ... done (  0.0 sec) ENN=   1506.732310939829 Eh

SHARK setup successfully completed in   0.3 seconds

Maximum memory used throughout the entire GTOINT-calculation: 25.3 MB


           ************************************************************
           *        Program running with 48 parallel MPI-processes    *
           *              working on a common directory               *
           ************************************************************

Diagonalization of the overlap matrix:
Smallest eigenvalue                        ... 2.074e-05
Time for diagonalization                   ...    0.029 sec
Threshold for overlap eigenvalues          ... 1.000e-08
Number of eigenvalues below threshold      ... 0
Time for construction of square roots      ...    0.038 sec
Total time needed                          ...    0.069 sec

Time for model grid setup =    0.215 sec

Loading Hartree-Fock densities                     ... done
Calculating cut-offs                               ... done
Initializing the effective Hamiltonian             ... done
Setting up the integral package (SHARK)            ... done
Starting the Coulomb interaction                   ... done (   0.1 sec)
Reading the grid                                   ... done
Mapping shells                                     ... done
Starting the XC term evaluation                    ... done (   0.1 sec)
  promolecular density results
     # of electrons  =    143.996495369
     EX              =   -127.519356482
     EC              =     -4.912932943
     EX+EC           =   -132.432289425
Transforming the Hamiltonian                       ... done (   0.0 sec)
Diagonalizing the Hamiltonian                      ... done (   0.0 sec)
Back transforming the eigenvectors                 ... done (   0.0 sec)
Now organizing SCF variables                       ... done
-------------------
DFT GRID GENERATION
-------------------

General Integration Accuracy     IntAcc      ... 4.388
Radial Grid Type                 RadialGrid  ... OptM3 with GC (2021)
Angular Grid (max. ang.)         AngularGrid ... 4 (Lebedev-302)
Angular grid pruning method      GridPruning ... 4 (adaptive)
Weight generation scheme         WeightScheme... Becke
Basis function cutoff            BFCut       ... 1.0000e-11
Integration weight cutoff        WCut        ... 1.0000e-14
Angular grids for H and He will be reduced by one unit
Partially contracted basis set               ... off
Rotationally invariant grid construction     ... off

Total number of grid points                  ...   152557
Total number of batches                      ...     2402
Average number of points per batch           ...       63
Average number of grid points per atom       ...     5085
Time for grid setup =    1.308 sec


--------------------
CPCM SOLVATION MODEL
--------------------
CPCM parameters:
  Epsilon                                         ...      78.3550
  Refrac                                          ...       1.3328
  Rsolv                                           ...       1.3000
  Surface type                                    ... GAUSSIAN VDW
  Epsilon function type                           ...         CPCM
Solvent:                                     ... WATER
SMD-CDS solvent descriptors:
  Soln                                       ...    1.3328
  Soln25                                     ...    1.3323
  Sola                                       ...    0.0000
  Solb                                       ...    0.0000
  Solg                                       ...    0.0000
  Solc                                       ...    0.0000
  Solh                                       ...    0.0000
Radii:
 Radius for C  used is    3.4960 Bohr (=   1.8500 Ang.)
 Radius for O  used is    2.8724 Bohr (=   1.5200 Ang.)
 Radius for N  used is    3.5716 Bohr (=   1.8900 Ang.)
 Radius for F  used is    3.2692 Bohr (=   1.7300 Ang.)
 Radius for H  used is    2.2677 Bohr (=   1.2000 Ang.)
Calculating surface                               ...        done! (  0.0s)
GEPOL surface points                              ...         1717
GEPOL Volume                                      ...    1711.9539
GEPOL Surface-area                                ...     971.8385
Calculating surface distance matrix               ...        done! (  0.0s)
Performing Cholesky decomposition & store         ...        done! (  0.3s)
Overall time for CPCM initialization              ...                 0.4s
--------------
SCF ITERATIONS
--------------
ITER       Energy         Delta-E        Max-DP      RMS-DP      [F,P]     Damp
               ***  Starting incremental Fock matrix formation  ***
  0  -1043.7584601713   0.000000000000 0.06634890  0.00129811  0.2616268 0.7000
  1  -1043.9563527204  -0.197892549046 0.04095936  0.00094638  0.0987989 0.7000
                               ***Turning on DIIS***
  2  -1044.0300994682  -0.073746747831 0.06907226  0.00171804  0.0347537 0.0000
  3  -1044.1515222822  -0.121422814001 0.04208121  0.00067908  0.0432589 0.0000
  4  -1044.1762637558  -0.024741473614 0.02144272  0.00029152  0.0188677 0.0000
  5  -1044.1780693305  -0.001805574676 0.00679152  0.00015229  0.0070574 0.0000
                      *** Initiating the SOSCF procedure ***
                           *** Shutting down DIIS ***
                      *** Re-Reading the Fockian *** 
                      *** Removing any level shift *** 
ITER      Energy       Delta-E        Grad      Rot      Max-DP    RMS-DP
  6  -1044.17818321  -0.0001138804  0.000328  0.000328  0.002443  0.000062
               *** Restarting incremental Fock matrix formation ***
  7  -1044.17819520  -0.0000119866  0.000244  0.001093  0.001488  0.000041
  8  -1044.17819146   0.0000037368  0.000498  0.000697  0.000490  0.000010
  9  -1044.17819762  -0.0000061570  0.000045  0.000124  0.000228  0.000006
 10  -1044.17819745   0.0000001711  0.000060  0.000080  0.000113  0.000002
 11  -1044.17819771  -0.0000002656  0.000008  0.000038  0.000102  0.000002
 12  -1044.17819772  -0.0000000052  0.000009  0.000025  0.000032  0.000001
                  ***Gradient check signals convergence***
              ***Rediagonalizing the Fockian in SOSCF/NRSCF***

               *****************************************************
               *                     SUCCESS                       *
               *           SCF CONVERGED AFTER  13 CYCLES          *
               *****************************************************


SMD CDS free energy correction energy :                 7.89013     Kcal/mol
Total Energy after SMD CDS correction =             -1044.165623994 Eh
Total Energy       :        -1044.16562399 Eh          -28413.19113 eV
  Last Energy change         ...    5.4076e-09  Tolerance :   1.0000e-08
  Last MAX-Density change    ...    4.2399e-05  Tolerance :   1.0000e-07
             **** THE GBW FILE WAS UPDATED (opt_2.gbw) ****
             **** DENSITY opt_2.scfp WAS UPDATED ****
             **** ENERGY FILE WAS UPDATED (opt_2.en.tmp) ****
             **** THE GBW FILE WAS UPDATED (opt_2.gbw) ****
             **** DENSITY opt_2.scfp WAS UPDATED ****
----------------
ORBITAL ENERGIES
----------------

  NO   OCC          E(Eh)            E(eV) 
   0   2.0000     -24.523813      -667.3269 
   1   2.0000     -24.519449      -667.2081 
   2   2.0000     -24.518521      -667.1829 
   3   2.0000     -19.006901      -517.2041 
   4   2.0000     -18.951650      -515.7006 
   5   2.0000     -14.194113      -386.2414 
   6   2.0000     -10.284459      -279.8544 
   7   2.0000     -10.177760      -276.9509 
   8   2.0000     -10.099129      -274.8113 
   9   2.0000     -10.091690      -274.6088 
  10   2.0000     -10.065789      -273.9040 
  11   2.0000     -10.059931      -273.7446 
  12   2.0000     -10.051052      -273.5030 
  13   2.0000     -10.048572      -273.4355 
  14   2.0000     -10.045188      -273.3435 
  15   2.0000     -10.043887      -273.3080 
  16   2.0000     -10.042856      -273.2800 
  17   2.0000     -10.041462      -273.2421 
  18   2.0000     -10.039676      -273.1935 
  19   2.0000     -10.034476      -273.0520 
  20   2.0000      -1.277794       -34.7705 
  21   2.0000      -1.189683       -32.3729 
  22   2.0000      -1.184640       -32.2357 
  23   2.0000      -1.081221       -29.4215 
  24   2.0000      -0.996350       -27.1121 
  25   2.0000      -0.938101       -25.5270 
  26   2.0000      -0.847136       -23.0517 
  27   2.0000      -0.827391       -22.5145 
  28   2.0000      -0.760644       -20.6982 
  29   2.0000      -0.746031       -20.3005 
  30   2.0000      -0.734001       -19.9732 
  31   2.0000      -0.706416       -19.2225 
  32   2.0000      -0.671611       -18.2755 
  33   2.0000      -0.629692       -17.1348 
  34   2.0000      -0.612258       -16.6604 
  35   2.0000      -0.605160       -16.4672 
  36   2.0000      -0.591043       -16.0831 
  37   2.0000      -0.574535       -15.6339 
  38   2.0000      -0.557202       -15.1622 
  39   2.0000      -0.554125       -15.0785 
  40   2.0000      -0.539478       -14.6799 
  41   2.0000      -0.530685       -14.4407 
  42   2.0000      -0.492382       -13.3984 
  43   2.0000      -0.475171       -12.9301 
  44   2.0000      -0.469399       -12.7730 
  45   2.0000      -0.449840       -12.2408 
  46   2.0000      -0.443018       -12.0551 
  47   2.0000      -0.437550       -11.9063 
  48   2.0000      -0.432737       -11.7754 
  49   2.0000      -0.432355       -11.7650 
  50   2.0000      -0.425441       -11.5768 
  51   2.0000      -0.417328       -11.3561 
  52   2.0000      -0.409642       -11.1469 
  53   2.0000      -0.404842       -11.0163 
  54   2.0000      -0.394465       -10.7339 
  55   2.0000      -0.383673       -10.4403 
  56   2.0000      -0.379691       -10.3319 
  57   2.0000      -0.375274       -10.2117 
  58   2.0000      -0.370360       -10.0780 
  59   2.0000      -0.364648        -9.9226 
  60   2.0000      -0.357334        -9.7235 
  61   2.0000      -0.349985        -9.5236 
  62   2.0000      -0.342386        -9.3168 
  63   2.0000      -0.328838        -8.9481 
  64   2.0000      -0.327498        -8.9117 
  65   2.0000      -0.310349        -8.4450 
  66   2.0000      -0.304503        -8.2859 
  67   2.0000      -0.266145        -7.2422 
  68   2.0000      -0.255274        -6.9464 
  69   2.0000      -0.251976        -6.8566 
  70   2.0000      -0.251604        -6.8465 
  71   2.0000      -0.189256        -5.1499 
  72   0.0000      -0.081225        -2.2103 
  73   0.0000      -0.055668        -1.5148 
  74   0.0000      -0.050696        -1.3795 
  75   0.0000      -0.014547        -0.3959 
  76   0.0000       0.010843         0.2951 
  77   0.0000       0.059762         1.6262 
  78   0.0000       0.079686         2.1684 
  79   0.0000       0.085595         2.3292 
  80   0.0000       0.092095         2.5060 
  81   0.0000       0.093746         2.5510 
  82   0.0000       0.100066         2.7229 
  83   0.0000       0.109271         2.9734 
  84   0.0000       0.119384         3.2486 
  85   0.0000       0.126580         3.4444 
  86   0.0000       0.129816         3.5325 
  87   0.0000       0.137272         3.7353 
  88   0.0000       0.142476         3.8770 
  89   0.0000       0.146757         3.9935 
  90   0.0000       0.150312         4.0902 
  91   0.0000       0.155019         4.2183 
  92   0.0000       0.167451         4.5566 
  93   0.0000       0.177081         4.8186 
  94   0.0000       0.181591         4.9413 
  95   0.0000       0.185806         5.0561 
  96   0.0000       0.191548         5.2123 
  97   0.0000       0.196567         5.3489 
  98   0.0000       0.199968         5.4414 
  99   0.0000       0.208045         5.6612 
 100   0.0000       0.212515         5.7828 
 101   0.0000       0.214515         5.8373 
 102   0.0000       0.221470         6.0265 
 103   0.0000       0.222606         6.0574 
 104   0.0000       0.229084         6.2337 
 105   0.0000       0.230631         6.2758 
 106   0.0000       0.235849         6.4178 
 107   0.0000       0.240046         6.5320 
 108   0.0000       0.243966         6.6387 
 109   0.0000       0.254155         6.9159 
 110   0.0000       0.257009         6.9936 
 111   0.0000       0.260381         7.0853 
 112   0.0000       0.267102         7.2682 
 113   0.0000       0.278578         7.5805 
 114   0.0000       0.281324         7.6552 
 115   0.0000       0.288499         7.8505 
 116   0.0000       0.290104         7.8941 
 117   0.0000       0.294118         8.0034 
 118   0.0000       0.301010         8.1909 
 119   0.0000       0.307418         8.3653 
 120   0.0000       0.312364         8.4998 
 121   0.0000       0.315889         8.5958 
 122   0.0000       0.324703         8.8356 
 123   0.0000       0.327076         8.9002 
 124   0.0000       0.329015         8.9530 
 125   0.0000       0.338818         9.2197 
 126   0.0000       0.354562         9.6481 
 127   0.0000       0.360821         9.8184 
 128   0.0000       0.365462         9.9447 
 129   0.0000       0.375009        10.2045 
 130   0.0000       0.379511        10.3270 
 131   0.0000       0.385861        10.4998 
 132   0.0000       0.391387        10.6502 
 133   0.0000       0.402107        10.9419 
 134   0.0000       0.412452        11.2234 
 135   0.0000       0.423964        11.5366 
 136   0.0000       0.426900        11.6165 
 137   0.0000       0.440148        11.9770 
 138   0.0000       0.445749        12.1295 
 139   0.0000       0.450857        12.2684 
 140   0.0000       0.452995        12.3266 
 141   0.0000       0.464531        12.6405 
 142   0.0000       0.474299        12.9063 
 143   0.0000       0.485280        13.2051 
 144   0.0000       0.490480        13.3466 
 145   0.0000       0.496142        13.5007 
 146   0.0000       0.498099        13.5540 
 147   0.0000       0.513742        13.9796 
 148   0.0000       0.516671        14.0593 
 149   0.0000       0.523208        14.2372 
 150   0.0000       0.529208        14.4005 
 151   0.0000       0.535502        14.5717 
 152   0.0000       0.543628        14.7929 
 153   0.0000       0.547269        14.8919 
 154   0.0000       0.553895        15.0722 
 155   0.0000       0.556226        15.1357 
 156   0.0000       0.569129        15.4868 
 157   0.0000       0.571236        15.5441 
 158   0.0000       0.574538        15.6340 
 159   0.0000       0.582914        15.8619 
 160   0.0000       0.585295        15.9267 
 161   0.0000       0.592784        16.1305 
 162   0.0000       0.608178        16.5494 
 163   0.0000       0.612803        16.6752 
 164   0.0000       0.619586        16.8598 
 165   0.0000       0.622082        16.9277 
 166   0.0000       0.625386        17.0176 
 167   0.0000       0.629141        17.1198 
 168   0.0000       0.638745        17.3811 
 169   0.0000       0.641094        17.4451 
 170   0.0000       0.656556        17.8658 
 171   0.0000       0.660844        17.9825 
 172   0.0000       0.664849        18.0915 
 173   0.0000       0.670243        18.2382 
 174   0.0000       0.673708        18.3325 
 175   0.0000       0.684303        18.6208 
 176   0.0000       0.694091        18.8872 
 177   0.0000       0.701589        19.0912 
 178   0.0000       0.712226        19.3806 
 179   0.0000       0.712919        19.3995 
 180   0.0000       0.719957        19.5910 
 181   0.0000       0.729425        19.8487 
 182   0.0000       0.731848        19.9146 
 183   0.0000       0.739117        20.1124 
 184   0.0000       0.747007        20.3271 
 185   0.0000       0.752551        20.4780 
 186   0.0000       0.755710        20.5639 
 187   0.0000       0.773037        21.0354 
 188   0.0000       0.778475        21.1834 
 189   0.0000       0.780910        21.2497 
 190   0.0000       0.785325        21.3698 
 191   0.0000       0.793494        21.5921 
 192   0.0000       0.795017        21.6335 
 193   0.0000       0.807368        21.9696 
 194   0.0000       0.843282        22.9469 
 195   0.0000       0.871873        23.7249 
 196   0.0000       0.875332        23.8190 
 197   0.0000       0.895070        24.3561 
 198   0.0000       0.901634        24.5347 
 199   0.0000       0.909294        24.7431 
 200   0.0000       0.919593        25.0234 
 201   0.0000       0.936420        25.4813 
 202   0.0000       0.949465        25.8363 
 203   0.0000       0.961448        26.1623 
 204   0.0000       0.964122        26.2351 
 205   0.0000       0.980881        26.6911 
 206   0.0000       0.989860        26.9355 
 207   0.0000       1.016080        27.6489 
 208   0.0000       1.030388        28.0383 
 209   0.0000       1.057159        28.7668 
 210   0.0000       1.069061        29.0906 
 211   0.0000       1.071762        29.1641 
 212   0.0000       1.098617        29.8949 
 213   0.0000       1.116556        30.3830 
 214   0.0000       1.133025        30.8312 
 215   0.0000       1.149572        31.2815 
 216   0.0000       1.165065        31.7030 
 217   0.0000       1.175161        31.9777 
 218   0.0000       1.193909        32.4879 
 219   0.0000       1.203960        32.7614 
 220   0.0000       1.215115        33.0650 
 221   0.0000       1.229495        33.4563 
 222   0.0000       1.245098        33.8808 
 223   0.0000       1.266180        34.4545 
 224   0.0000       1.273474        34.6530 
 225   0.0000       1.284069        34.9413 
 226   0.0000       1.302696        35.4482 
 227   0.0000       1.309081        35.6219 
 228   0.0000       1.311267        35.6814 
 229   0.0000       1.324833        36.0505 
 230   0.0000       1.330839        36.2140 
 231   0.0000       1.341310        36.4989 
 232   0.0000       1.349503        36.7218 
 233   0.0000       1.351598        36.7789 
 234   0.0000       1.365195        37.1488 
 235   0.0000       1.374092        37.3909 
 236   0.0000       1.384408        37.6717 
 237   0.0000       1.387490        37.7555 
 238   0.0000       1.396346        37.9965 
 239   0.0000       1.400864        38.1195 
 240   0.0000       1.415214        38.5099 
 241   0.0000       1.428373        38.8680 
 242   0.0000       1.434091        39.0236 
 243   0.0000       1.437762        39.1235 
 244   0.0000       1.442515        39.2528 
 245   0.0000       1.450203        39.4620 
 246   0.0000       1.458537        39.6888 
 247   0.0000       1.467995        39.9462 
 248   0.0000       1.469954        39.9995 
 249   0.0000       1.471825        40.0504 
 250   0.0000       1.481672        40.3183 
 251   0.0000       1.482861        40.3507 
 252   0.0000       1.493507        40.6404 
 253   0.0000       1.500833        40.8397 
 254   0.0000       1.505215        40.9590 
 255   0.0000       1.515269        41.2326 
 256   0.0000       1.525971        41.5238 
 257   0.0000       1.529885        41.6303 
 258   0.0000       1.535619        41.7863 
 259   0.0000       1.541321        41.9415 
 260   0.0000       1.546145        42.0727 
 261   0.0000       1.558790        42.4168 
 262   0.0000       1.562268        42.5115 
 263   0.0000       1.565853        42.6090 
 264   0.0000       1.579890        42.9910 
 265   0.0000       1.581641        43.0386 
 266   0.0000       1.596071        43.4313 
 267   0.0000       1.602128        43.5961 
 268   0.0000       1.610968        43.8367 
 269   0.0000       1.615271        43.9538 
 270   0.0000       1.630006        44.3547 
 271   0.0000       1.647195        44.8225 
 272   0.0000       1.649123        44.8749 
 273   0.0000       1.662811        45.2474 
 274   0.0000       1.682649        45.7872 
 275   0.0000       1.685497        45.8647 
 276   0.0000       1.698378        46.2152 
 277   0.0000       1.730167        47.0802 
 278   0.0000       1.744155        47.4609 
 279   0.0000       1.749360        47.6025 
 280   0.0000       1.768586        48.1257 
 281   0.0000       1.778112        48.3849 
 282   0.0000       1.787658        48.6447 
 283   0.0000       1.810486        49.2658 
 284   0.0000       1.819945        49.5232 
 285   0.0000       1.840507        50.0827 
 286   0.0000       1.865396        50.7600 
 287   0.0000       1.874776        51.0153 
 288   0.0000       1.926630        52.4263 
 289   0.0000       1.951599        53.1057 
 290   0.0000       1.967990        53.5517 
 291   0.0000       1.986017        54.0423 
 292   0.0000       1.999718        54.4151 
 293   0.0000       2.014795        54.8254 
 294   0.0000       2.034943        55.3736 
 295   0.0000       2.041500        55.5520 
 296   0.0000       2.045806        55.6692 
 297   0.0000       2.056796        55.9683 
 298   0.0000       2.058943        56.0267 
 299   0.0000       2.070404        56.3386 
 300   0.0000       2.077702        56.5371 
 301   0.0000       2.079811        56.5945 
 302   0.0000       2.094384        56.9911 
 303   0.0000       2.105193        57.2852 
 304   0.0000       2.119734        57.6809 
 305   0.0000       2.138183        58.1829 
 306   0.0000       2.141460        58.2721 
 307   0.0000       2.151113        58.5348 
 308   0.0000       2.162356        58.8407 
 309   0.0000       2.176571        59.2275 
 310   0.0000       2.181427        59.3596 
 311   0.0000       2.213583        60.2346 
 312   0.0000       2.228573        60.6425 
 313   0.0000       2.234524        60.8045 
 314   0.0000       2.241295        60.9887 
 315   0.0000       2.248918        61.1962 
 316   0.0000       2.267164        61.6927 
 317   0.0000       2.273590        61.8675 
 318   0.0000       2.275165        61.9104 
 319   0.0000       2.281413        62.0804 
 320   0.0000       2.289288        62.2947 
 321   0.0000       2.295817        62.4724 
 322   0.0000       2.305660        62.7402 
 323   0.0000       2.318620        63.0928 
 324   0.0000       2.328157        63.3524 
 325   0.0000       2.331393        63.4404 
 326   0.0000       2.341329        63.7108 
 327   0.0000       2.363183        64.3055 
 328   0.0000       2.364547        64.3426 
 329   0.0000       2.368679        64.4550 
 330   0.0000       2.371759        64.5389 
 331   0.0000       2.381104        64.7931 
 332   0.0000       2.383397        64.8555 
 333   0.0000       2.393458        65.1293 
 334   0.0000       2.397134        65.2293 
 335   0.0000       2.405089        65.4458 
 336   0.0000       2.420964        65.8778 
 337   0.0000       2.426088        66.0172 
 338   0.0000       2.440367        66.4058 
 339   0.0000       2.461108        66.9702 
 340   0.0000       2.474714        67.3404 
 341   0.0000       2.484611        67.6097 
 342   0.0000       2.505942        68.1902 
 343   0.0000       2.517465        68.5037 
 344   0.0000       2.527523        68.7774 
 345   0.0000       2.545410        69.2641 
 346   0.0000       2.569254        69.9130 
 347   0.0000       2.596010        70.6410 
 348   0.0000       2.620843        71.3168 
 349   0.0000       2.650633        72.1274 
 350   0.0000       2.654718        72.2385 
 351   0.0000       2.676153        72.8218 
 352   0.0000       2.686232        73.0961 
 353   0.0000       2.687043        73.1182 
 354   0.0000       2.697328        73.3980 
 355   0.0000       2.711074        73.7721 
 356   0.0000       2.716403        73.9171 
 357   0.0000       2.738991        74.5317 
 358   0.0000       2.743428        74.6525 
 359   0.0000       2.770905        75.4002 
 360   0.0000       2.785197        75.7891 
 361   0.0000       2.799607        76.1812 
 362   0.0000       2.811570        76.5067 
 363   0.0000       2.820987        76.7630 
 364   0.0000       2.830539        77.0229 
 365   0.0000       2.864481        77.9465 
 366   0.0000       2.887220        78.5653 
 367   0.0000       2.903810        79.0167 
 368   0.0000       2.931131        79.7601 
 369   0.0000       2.942414        80.0671 
 370   0.0000       2.960639        80.5631 
 371   0.0000       2.971193        80.8503 
 372   0.0000       2.981593        81.1333 
 373   0.0000       2.991386        81.3997 
 374   0.0000       3.012507        81.9745 
 375   0.0000       3.028200        82.4015 
 376   0.0000       3.087846        84.0246 
 377   0.0000       3.096938        84.2720 
 378   0.0000       3.102705        84.4289 
 379   0.0000       3.112636        84.6991 
 380   0.0000       3.136854        85.3581 
 381   0.0000       3.148560        85.6767 
 382   0.0000       3.174759        86.3896 
 383   0.0000       3.184683        86.6596 
 384   0.0000       3.206893        87.2640 
 385   0.0000       3.216280        87.5194 
 386   0.0000       3.223704        87.7214 
 387   0.0000       3.224570        87.7450 
 388   0.0000       3.253582        88.5345 
 389   0.0000       3.255973        88.5995 
 390   0.0000       3.269526        88.9683 
 391   0.0000       3.279534        89.2407 
 392   0.0000       3.285915        89.4143 
 393   0.0000       3.292454        89.5922 
 394   0.0000       3.301418        89.8362 
 395   0.0000       3.309779        90.0637 
 396   0.0000       3.313907        90.1760 
 397   0.0000       3.323135        90.4271 
 398   0.0000       3.325117        90.4810 
 399   0.0000       3.332008        90.6685 
 400   0.0000       3.344784        91.0162 
 401   0.0000       3.345856        91.0454 
 402   0.0000       3.353644        91.2573 
 403   0.0000       3.372382        91.7672 
 404   0.0000       3.401672        92.5642 
 405   0.0000       3.407337        92.7183 
 406   0.0000       3.420892        93.0872 
 407   0.0000       3.424755        93.1923 
 408   0.0000       3.441861        93.6578 
 409   0.0000       3.453204        93.9665 
 410   0.0000       3.461661        94.1966 
 411   0.0000       3.467532        94.3564 
 412   0.0000       3.475019        94.5601 
 413   0.0000       3.484513        94.8184 
 414   0.0000       3.500337        95.2490 
 415   0.0000       3.522737        95.8585 
 416   0.0000       3.537086        96.2490 
 417   0.0000       3.600581        97.9768 
 418   0.0000       3.610720        98.2527 
 419   0.0000       3.618842        98.4737 
 420   0.0000       3.630680        98.7958 
 421   0.0000       3.650000        99.3216 
 422   0.0000       3.698917       100.6527 
 423   0.0000       3.716757       101.1381 
 424   0.0000       3.748434       102.0001 
 425   0.0000       3.762046       102.3705 
 426   0.0000       3.841834       104.5416 
 427   0.0000       3.863956       105.1436 
 428   0.0000       4.007766       109.0569 
 429   0.0000       4.074549       110.8741 
 430   0.0000       4.101741       111.6141 
 431   0.0000       4.135504       112.5328 
 432   0.0000       4.164229       113.3144 
 433   0.0000       4.174620       113.5972 
 434   0.0000       4.270780       116.2138 
 435   0.0000       4.379766       119.1795 
 436   0.0000       4.507443       122.6538 
 437   0.0000       4.574445       124.4770 
 438   0.0000       4.700081       127.8957 
 439   0.0000       4.806853       130.8011 
 440   0.0000      21.466745       584.1398 
 441   0.0000      21.489086       584.7478 
 442   0.0000      21.892428       595.7233 
 443   0.0000      21.946802       597.2028 
 444   0.0000      22.037764       599.6780 
 445   0.0000      22.059197       600.2613 
 446   0.0000      22.089771       601.0932 
 447   0.0000      22.164803       603.1349 
 448   0.0000      22.211786       604.4134 
 449   0.0000      22.214289       604.4815 
 450   0.0000      22.254207       605.5678 
 451   0.0000      22.279068       606.2442 
 452   0.0000      22.349572       608.1628 
 453   0.0000      22.376364       608.8918 
 454   0.0000      32.072956       872.7495 
 455   0.0000      43.617983      1186.9057 
 456   0.0000      43.741291      1190.2610 
 457   0.0000      57.197747      1556.4298 
 458   0.0000      57.226328      1557.2076 
 459   0.0000      57.316049      1559.6490 
Total SCF time: 0 days 0 hours 0 min 35 sec 

Maximum memory used throughout the entire SCF-calculation: 84.9 MB


-------------------------------------------------------------------------------
                          DFT DISPERSION CORRECTION                            
                                                                               
                                 DFTD4 V2.5                                    
-------------------------------------------------------------------------------
Starting D4
-------------------------   ----------------
Dispersion correction           -0.013482302
-------------------------   ----------------

------------------   -----------------
gCP correction             0.018082240
------------------   -----------------

-------------------------   --------------------
FINAL SINGLE POINT ENERGY     -1044.161024055360
-------------------------   --------------------



           ************************************************************
           *        Program running with 48 parallel MPI-processes    *
           *              working on a common directory               *
           ************************************************************
------------------------------------------------------------------------------
                         ORCA SCF GRADIENT CALCULATION
------------------------------------------------------------------------------

Gradient of the Kohn-Sham DFT energy:
Kohn-Sham wavefunction type      ... RKS
Hartree-Fock exchange scaling    ...    0.000
Number of operators              ...    1
Number of atoms                  ...   30
Basis set dimensions             ...  460
Integral neglect threshold       ... 2.5e-11
Integral primitive cutoff        ... 2.5e-12
SHARK Integral package           ... ON

Nuc. rep. gradient       (SHARK) ... done (  0.0 sec)
HCore & Overlap gradient (SHARK) ... done (  0.1 sec)
RI-J gradient            (SHARK) ... done (  0.2 sec)
Exchange-correlation gradient    ... done
Dispersion correction            ... Starting D4
Starting D4
Starting D4
Starting D4
Starting D4
Starting D4
Starting D4
Starting D4
Starting D4
Starting D4
Starting D4
Starting D4
Starting D4
Starting D4
Starting D4
Starting D4


------------------- 
Dispersion Gradient 
------------------- 
   1  :    0.000055490    0.000125261    0.000027095
   2  :    0.000026602    0.000144321    0.000061081
   3  :    0.000020411    0.000116395    0.000074166
   4  :    0.000056882    0.000022175    0.000024332
   5  :    0.000105748    0.000001428   -0.000020090
   6  :    0.000098539    0.000067802   -0.000011388
   7  :    0.000115294   -0.000076529   -0.000058541
   8  :    0.000079999   -0.000106708   -0.000028811
   9  :    0.000084677   -0.000021174   -0.000067740
  10  :    0.000031460   -0.000085209    0.000019078
  11  :   -0.000037826   -0.000083869    0.000020355
  12  :   -0.000038491   -0.000136813    0.000041196
  13  :   -0.000057164   -0.000121582    0.000037813
  14  :   -0.000089233   -0.000074145    0.000017103
  15  :   -0.000109151   -0.000005517   -0.000022034
  16  :   -0.000068686   -0.000000780   -0.000024072
  17  :   -0.000089303    0.000041860   -0.000033099
  18  :   -0.000057961    0.000024435   -0.000055431
  19  :   -0.000071255    0.000043548    0.000013960
  20  :   -0.000049274    0.000075574   -0.000037903
  21  :    0.000020093    0.000043818    0.000006088
  22  :   -0.000002786    0.000050842    0.000023873
  23  :    0.000000437    0.000046393    0.000045440
  24  :    0.000044979    0.000018628   -0.000010115
  25  :    0.000033245   -0.000027507   -0.000032342
  26  :    0.000019002   -0.000039005    0.000000953
  27  :   -0.000002407   -0.000059206    0.000022130
  28  :   -0.000017891   -0.000045137    0.000015515
  29  :   -0.000041775   -0.000018331    0.000005049
  30  :   -0.000029433    0.000032246   -0.000031576

  |G| =    0.004200102

Starting D4
Starting D4
Starting D4
Starting D4
Starting D4
Starting D4
Starting D4
Starting D4
Starting D4
Starting D4
Starting D4
Starting D4
Starting D4
Starting D4
Starting D4
Starting D4
Starting D4
Starting D4
Starting D4
Starting D4
Starting D4
Starting D4
Starting D4
Starting D4
Starting D4
Starting D4
Starting D4
Starting D4
Starting D4
Starting D4
Starting D4
Starting D4
done
gCP correction                   ... done

------------------
CARTESIAN GRADIENT
------------------

   1   C   :   -0.002598146   -0.002772055    0.000711033
   2   C   :    0.000771833    0.001987208    0.000825939
   3   C   :    0.001813768    0.000032246   -0.000325657
   4   C   :   -0.000631778   -0.001098274   -0.001236459
   5   C   :   -0.003209883    0.001286779    0.001363180
   6   C   :    0.000652998    0.001032434   -0.000843593
   7   C   :    0.007638200   -0.010756114   -0.006114633
   8   O   :   -0.000240625    0.009865531    0.000242306
   9   O   :   -0.012901085   -0.000061136    0.010178978
  10   N   :   -0.006995519    0.007795261    0.000855720
  11   C   :    0.008784139   -0.001237747   -0.000225545
  12   C   :   -0.004106381   -0.000128942   -0.000778551
  13   C   :    0.003323809   -0.001337737    0.001752379
  14   C   :    0.001946319   -0.001009238    0.000533145
  15   C   :    0.001083851   -0.002566016    0.000241567
  16   C   :    0.000693480   -0.001795861    0.000838432
  17   C   :    0.003938760   -0.004141259    0.002347175
  18   F   :    0.001656836    0.007149425    0.007326279
  19   F   :    0.003899389    0.002402640   -0.009449525
  20   F   :   -0.009479661   -0.005438457    0.000324012
  21   H   :   -0.003222272   -0.004083606   -0.000409111
  22   H   :    0.002448425   -0.004093651   -0.002651000
  23   H   :    0.004355904   -0.000816621   -0.001789730
  24   H   :   -0.004349642   -0.000837712    0.001482176
  25   H   :    0.003129718    0.003765663   -0.001564071
  26   H   :    0.000988208   -0.001071249   -0.000111035
  27   H   :   -0.003777260    0.004147156   -0.002237703
  28   H   :    0.001259653    0.005217098   -0.001810262
  29   H   :    0.004749251    0.001799546   -0.000604217
  30   H   :   -0.001592068   -0.003282100    0.001150858

Difference to translation invariance:
           :    0.0000302232   -0.0000467876    0.0000220867

Difference to rotation invariance:
           :   -0.0011706231   -0.0007460868    0.0007526354

Norm of the cartesian gradient     ...    0.0384269460
RMS gradient                       ...    0.0040505558
MAX gradient                       ...    0.0129010854

-------
TIMINGS
-------

Total SCF gradient time            ...        3.507 sec

One electron gradient       ....       0.054 sec  (  1.5%)
RI-J Coulomb gradient       ....       0.241 sec  (  6.9%)
XC gradient                 ....       1.735 sec  ( 49.5%)
CPCM gradient               ....       0.251 sec  (  7.1%)
   A-Matrix (El+Nuc)        ....       0.106 sec  (  3.0%)
   Potential                ....       0.144 sec  (  4.1%)

Maximum memory used throughout the entire SCFGRAD-calculation: 49.8 MB
------------------------------------------------------------------------------
                         ORCA GEOMETRY RELAXATION STEP
------------------------------------------------------------------------------

Reading the OPT-File                    .... done
Getting information on internals        .... done
Copying old internal coords+grads       .... done
Making the new internal coordinates     .... (new redundants).... done
Validating the new internal coordinates .... (new redundants).... done
Calculating the B-matrix                .... done
Calculating the G,G- and P matrices     .... done
Transforming gradient to internals      .... done
Projecting the internal gradient        .... done
Number of atoms                         ....  30
Number of internal coordinates          .... 148
Current Energy                          .... -1044.161024055 Eh
Current gradient norm                   ....     0.038426946 Eh/bohr
Maximum allowed component of the step   ....  0.300
Current trust radius                    ....  0.300
Evaluating the initial hessian          ....  (Almloef) done
Projecting the Hessian                  .... done
Forming the augmented Hessian           .... done
Diagonalizing the augmented Hessian     .... done
Last element of RFO vector              ....  0.991009529
Lowest eigenvalues of augmented Hessian:
 -0.003713330  0.013191050  0.014651855  0.020937499  0.020987230
Length of the computed step             ....  0.135005061
The final length of the internal step   ....  0.135005061
Converting the step to cartesian space:
 Initial RMS(Int)=    0.0110973476
Transforming coordinates:
 Iter   0:  RMS(Cart)=    0.0457240325 RMS(Int)=    0.5160169696
 Iter   1:  RMS(Cart)=    0.0008522638 RMS(Int)=    0.0003902842
 Iter   2:  RMS(Cart)=    0.0000388769 RMS(Int)=    0.0000130239
 Iter   3:  RMS(Cart)=    0.0000020252 RMS(Int)=    0.0000011068
 Iter   4:  RMS(Cart)=    0.0000001069 RMS(Int)=    0.0000000451
 Iter   5:  RMS(Cart)=    0.0000000059 RMS(Int)=    0.0000000036
done
Storing new coordinates                 .... done

                                .--------------------.
          ----------------------|Geometry convergence|-------------------------
          Item                value                   Tolerance       Converged
          ---------------------------------------------------------------------
          RMS gradient        0.0035050479            0.0001000000      NO
          MAX gradient        0.0124941804            0.0003000000      NO
          RMS step            0.0110973476            0.0020000000      NO
          MAX step            0.0432442788            0.0040000000      NO
          ........................................................
          Max(Bonds)      0.0110      Max(Angles)    1.08
          Max(Dihed)        2.48      Max(Improp)    0.00
          ---------------------------------------------------------------------

The optimization has not yet converged - more geometry cycles are needed


    ---------------------------------------------------------------------------
                         Redundant Internal Coordinates
                            (Angstroem and degrees)

        Definition                    Value    dE/dq     Step     New-Value
    ----------------------------------------------------------------------------
     1. B(C   1,C   0)                1.3894 -0.006654  0.0056    1.3950   
     2. B(C   2,C   1)                1.3773 -0.004920  0.0040    1.3813   
     3. B(C   3,C   2)                1.4010 -0.005822  0.0051    1.4061   
     4. B(C   4,C   3)                1.4171 -0.009298  0.0086    1.4258   
     5. B(C   5,C   4)                1.3998 -0.005913  0.0052    1.4049   
     6. B(C   5,C   0)                1.3770 -0.005103  0.0041    1.3811   
     7. B(C   6,C   4)                1.4721 -0.004368  0.0050    1.4770   
     8. B(O   7,C   6)                1.2230 -0.009052  0.0046    1.2276   
     9. B(O   8,C   6)                1.3335 -0.012494  0.0095    1.3430   
    10. B(N   9,C   3)                1.3703 -0.008932  0.0078    1.3781   
    11. B(C  10,N   9)                1.3774 -0.012241  0.0110    1.3884   
    12. B(C  11,C  10)                1.3993 -0.004467  0.0039    1.4032   
    13. B(C  12,C  11)                1.3787 -0.007957  0.0065    1.3852   
    14. B(C  13,C  12)                1.3860 -0.005061  0.0042    1.3902   
    15. B(C  14,C  13)                1.3894 -0.005376  0.0045    1.3939   
    16. B(C  15,C  14)                1.3848 -0.004592  0.0037    1.3886   
    17. B(C  15,C  10)                1.3975 -0.004998  0.0043    1.4018   
    18. B(C  16,C  14)                1.4965 -0.000181  0.0002    1.4968   
    19. B(F  17,C  16)                1.3544 -0.008812  0.0078    1.3622   
    20. B(F  18,C  16)                1.3523 -0.008658  0.0076    1.3599   
    21. B(F  19,C  16)                1.3441 -0.008853  0.0076    1.3516   
    22. B(H  20,C   0)                1.0777 -0.005199  0.0072    1.0850   
    23. B(H  21,C   1)                1.0784 -0.005427  0.0076    1.0860   
    24. B(H  22,C   2)                1.0775 -0.004687  0.0065    1.0840   
    25. B(H  23,C   5)                1.0798 -0.004604  0.0065    1.0862   
    26. B(H  24,O   8)                0.9741  0.004550 -0.0048    0.9693   
    27. B(H  25,N   9)                1.0170  0.001443 -0.0018    1.0152   
    28. B(H  26,C  11)                1.0787 -0.006015  0.0084    1.0871   
    29. B(H  27,C  12)                1.0776 -0.005615  0.0078    1.0854   
    30. B(H  28,C  13)                1.0786 -0.004974  0.0069    1.0856   
    31. B(H  29,C  15)                1.0778 -0.003805  0.0053    1.0831   
    32. A(C   5,C   0,H  20)          120.19 -0.000365    0.04    120.24   
    33. A(C   1,C   0,H  20)          120.39 -0.001140    0.17    120.55   
    34. A(C   1,C   0,C   5)          119.41  0.001505   -0.21    119.20   
    35. A(C   0,C   1,C   2)          120.46 -0.001485    0.20    120.66   
    36. A(C   2,C   1,H  21)          119.51  0.001254   -0.18    119.33   
    37. A(C   0,C   1,H  21)          120.01  0.000232   -0.02    119.99   
    38. A(C   1,C   2,C   3)          121.20 -0.000133    0.02    121.22   
    39. A(C   1,C   2,H  22)          119.75  0.000937   -0.14    119.61   
    40. A(C   3,C   2,H  22)          118.98 -0.000807    0.13    119.11   
    41. A(C   2,C   3,C   4)          118.40  0.000920   -0.12    118.28   
    42. A(C   4,C   3,N   9)          120.15 -0.003294    0.46    120.60   
    43. A(C   2,C   3,N   9)          121.39  0.002355   -0.30    121.09   
    44. A(C   3,C   4,C   5)          119.08  0.000522   -0.07    119.01   
    45. A(C   5,C   4,C   6)          120.04  0.001349   -0.18    119.86   
    46. A(C   3,C   4,C   6)          120.86 -0.001876    0.27    121.13   
    47. A(C   0,C   5,C   4)          121.44 -0.001333    0.19    121.63   
    48. A(C   4,C   5,H  23)          119.86 -0.000043    0.03    119.89   
    49. A(C   0,C   5,H  23)          118.63  0.001366   -0.20    118.43   
    50. A(C   4,C   6,O   8)          118.13 -0.003148    0.40    118.53   
    51. A(O   7,C   6,O   8)          118.21  0.006113   -0.75    117.46   
    52. A(C   4,C   6,O   7)          123.66 -0.002965    0.35    124.01   
    53. A(C   6,O   8,H  24)          113.91  0.003980   -0.60    113.30   
    54. A(C   3,N   9,C  10)          128.93  0.000268   -0.03    128.90   
    55. A(C  10,N   9,H  25)          116.38  0.000111   -0.01    116.37   
    56. A(C   3,N   9,H  25)          114.51 -0.000388    0.07    114.57   
    57. A(N   9,C  10,C  11)          118.39  0.002023   -0.28    118.12   
    58. A(C  11,C  10,C  15)          118.67 -0.000670    0.09    118.75   
    59. A(N   9,C  10,C  15)          122.87 -0.001341    0.17    123.04   
    60. A(C  12,C  11,H  26)          120.13 -0.000547    0.07    120.19   
    61. A(C  10,C  11,H  26)          118.86 -0.000575    0.07    118.93   
    62. A(C  10,C  11,C  12)          121.01  0.001122   -0.14    120.88   
    63. A(C  13,C  12,H  27)          119.55 -0.000442    0.07    119.62   
    64. A(C  11,C  12,H  27)          119.94  0.001127   -0.18    119.76   
    65. A(C  11,C  12,C  13)          120.51 -0.000684    0.12    120.62   
    66. A(C  14,C  13,H  28)          120.12 -0.001751    0.26    120.38   
    67. A(C  12,C  13,H  28)          121.32  0.000659   -0.12    121.20   
    68. A(C  12,C  13,C  14)          118.56  0.001092   -0.14    118.42   
    69. A(C  15,C  14,C  16)          120.12  0.001203   -0.16    119.96   
    70. A(C  13,C  14,C  16)          118.13 -0.000221    0.04    118.17   
    71. A(C  13,C  14,C  15)          121.74 -0.000979    0.12    121.86   
    72. A(C  14,C  15,H  29)          119.84 -0.000379    0.06    119.90   
    73. A(C  10,C  15,H  29)          120.68  0.000275   -0.04    120.64   
    74. A(C  10,C  15,C  14)          119.46  0.000108   -0.03    119.43   
    75. A(F  18,C  16,F  19)          105.68 -0.007960    1.08    106.76   
    76. A(F  17,C  16,F  19)          105.58 -0.007594    1.05    106.63   
    77. A(C  14,C  16,F  19)          114.25  0.007458   -1.04    113.20   
    78. A(F  17,C  16,F  18)          104.99 -0.007014    1.00    105.98   
    79. A(C  14,C  16,F  18)          112.78  0.006661   -0.92    111.86   
    80. A(C  14,C  16,F  17)          112.77  0.005853   -0.80    111.98   
    81. D(C   2,C   1,C   0,H  20)   -178.86 -0.000055    0.09   -178.77   
    82. D(H  21,C   1,C   0,H  20)     -0.39 -0.000001   -0.00     -0.40   
    83. D(C   2,C   1,C   0,C   5)     -0.15 -0.000044    0.09     -0.07   
    84. D(H  21,C   1,C   0,C   5)    178.32  0.000011   -0.01    178.30   
    85. D(H  22,C   2,C   1,C   0)    176.20 -0.000247    0.37    176.57   
    86. D(H  22,C   2,C   1,H  21)     -2.28 -0.000286    0.47     -1.81   
    87. D(C   3,C   2,C   1,C   0)     -0.81 -0.000161    0.27     -0.54   
    88. D(C   3,C   2,C   1,H  21)   -179.29 -0.000200    0.37   -178.92   
    89. D(N   9,C   3,C   2,H  22)      1.00 -0.000186    0.23      1.23   
    90. D(N   9,C   3,C   2,C   1)    178.04 -0.000221    0.32    178.35   
    91. D(C   4,C   3,C   2,H  22)   -176.08  0.000347   -0.64   -176.71   
    92. D(C   4,C   3,C   2,C   1)      0.96  0.000312   -0.55      0.41   
    93. D(C   6,C   4,C   3,C   2)    178.21 -0.000414    0.94    179.15   
    94. D(C   5,C   4,C   3,N   9)   -177.28  0.000119   -0.37   -177.65   
    95. D(C   5,C   4,C   3,C   2)     -0.16 -0.000239    0.47      0.30   
    96. D(C   6,C   4,C   3,N   9)      1.09 -0.000056    0.11      1.20   
    97. D(H  23,C   5,C   4,C   6)     -2.31  0.000096   -0.22     -2.52   
    98. D(C   0,C   5,C   4,C   6)   -179.18  0.000280   -0.60   -179.78   
    99. D(C   0,C   5,C   4,C   3)     -0.80  0.000053   -0.12     -0.92   
   100. D(H  23,C   5,C   0,H  20)      2.76  0.000319   -0.55      2.21   
   101. D(H  23,C   5,C   0,C   1)   -175.95  0.000318   -0.55   -176.50   
   102. D(H  23,C   5,C   4,C   3)    176.08 -0.000132    0.26    176.34   
   103. D(C   4,C   5,C   0,H  20)    179.67  0.000095   -0.16    179.51   
   104. D(C   4,C   5,C   0,C   1)      0.96  0.000094   -0.16      0.80   
   105. D(O   8,C   6,C   4,C   5)    -24.89  0.000564   -1.85    -26.74   
   106. D(O   8,C   6,C   4,C   3)    156.75  0.000755   -2.33    154.42   
   107. D(O   7,C   6,C   4,C   5)    155.18  0.000624   -1.99    153.18   
   108. D(O   7,C   6,C   4,C   3)    -23.18  0.000815   -2.48    -25.66   
   109. D(H  24,O   8,C   6,O   7)    173.78  0.000851   -1.22    172.55   
   110. D(H  24,O   8,C   6,C   4)     -6.16  0.000914   -1.36     -7.52   
   111. D(C  10,N   9,C   3,C   2)     26.26  0.000013   -0.10     26.16   
   112. D(H  25,N   9,C   3,C   4)     18.18 -0.000541    1.02     19.21   
   113. D(H  25,N   9,C   3,C   2)   -158.85 -0.000124    0.16   -158.69   
   114. D(C  10,N   9,C   3,C   4)   -156.71 -0.000404    0.76   -155.95   
   115. D(C  15,C  10,N   9,H  25)   -151.13 -0.000486    0.93   -150.20   
   116. D(C  15,C  10,N   9,C   3)     23.68 -0.000646    1.20     24.88   
   117. D(C  11,C  10,N   9,H  25)     25.82 -0.000234    0.41     26.23   
   118. D(C  11,C  10,N   9,C   3)   -159.37 -0.000394    0.68   -158.69   
   119. D(H  26,C  11,C  10,C  15)    177.77 -0.000301    0.57    178.35   
   120. D(H  26,C  11,C  10,N   9)      0.69 -0.000517    1.07      1.76   
   121. D(C  12,C  11,C  10,C  15)     -2.34 -0.000384    0.74     -1.60   
   122. D(C  12,C  11,C  10,N   9)   -179.42 -0.000600    1.23   -178.19   
   123. D(H  27,C  12,C  11,H  26)      0.44  0.000026   -0.03      0.41   
[...]
  92   0.0000       0.164868         4.4863 
  93   0.0000       0.174542         4.7495 
  94   0.0000       0.178270         4.8510 
  95   0.0000       0.181535         4.9398 
  96   0.0000       0.189340         5.1522 
  97   0.0000       0.193925         5.2770 
  98   0.0000       0.194583         5.2949 
  99   0.0000       0.205884         5.6024 
 100   0.0000       0.206741         5.6257 
 101   0.0000       0.209887         5.7113 
 102   0.0000       0.220360         5.9963 
 103   0.0000       0.220587         6.0025 
 104   0.0000       0.226330         6.1587 
 105   0.0000       0.228444         6.2163 
 106   0.0000       0.233518         6.3544 
 107   0.0000       0.235390         6.4053 
 108   0.0000       0.242151         6.5893 
 109   0.0000       0.251520         6.8442 
 110   0.0000       0.254825         6.9341 
 111   0.0000       0.259746         7.0681 
 112   0.0000       0.264690         7.2026 
 113   0.0000       0.276809         7.5324 
 114   0.0000       0.278777         7.5859 
 115   0.0000       0.286497         7.7960 
 116   0.0000       0.287739         7.8298 
 117   0.0000       0.290862         7.9148 
 118   0.0000       0.298760         8.1297 
 119   0.0000       0.304673         8.2906 
 120   0.0000       0.310352         8.4451 
 121   0.0000       0.315663         8.5896 
 122   0.0000       0.322267         8.7693 
 123   0.0000       0.323892         8.8136 
 124   0.0000       0.326666         8.8890 
 125   0.0000       0.336608         9.1596 
 126   0.0000       0.353105         9.6085 
 127   0.0000       0.356015         9.6877 
 128   0.0000       0.362098         9.8532 
 129   0.0000       0.372956        10.1486 
 130   0.0000       0.377447        10.2708 
 131   0.0000       0.379544        10.3279 
 132   0.0000       0.389335        10.5943 
 133   0.0000       0.395453        10.7608 
 134   0.0000       0.409759        11.1501 
 135   0.0000       0.419897        11.4260 
 136   0.0000       0.422387        11.4937 
 137   0.0000       0.438740        11.9387 
 138   0.0000       0.442798        12.0491 
 139   0.0000       0.448467        12.2034 
 140   0.0000       0.451878        12.2962 
 141   0.0000       0.462803        12.5935 
 142   0.0000       0.473965        12.8972 
 143   0.0000       0.482313        13.1244 
 144   0.0000       0.488346        13.2886 
 145   0.0000       0.492755        13.4086 
 146   0.0000       0.496407        13.5079 
 147   0.0000       0.511028        13.9058 
 148   0.0000       0.513162        13.9639 
 149   0.0000       0.521842        14.2000 
 150   0.0000       0.526068        14.3150 
 151   0.0000       0.532082        14.4787 
 152   0.0000       0.540385        14.7046 
 153   0.0000       0.545345        14.8396 
 154   0.0000       0.551157        14.9978 
 155   0.0000       0.554480        15.0882 
 156   0.0000       0.563769        15.3409 
 157   0.0000       0.569123        15.4866 
 158   0.0000       0.569897        15.5077 
 159   0.0000       0.579377        15.7657 
 160   0.0000       0.585698        15.9377 
 161   0.0000       0.588004        16.0004 
 162   0.0000       0.604834        16.4584 
 163   0.0000       0.610655        16.6168 
 164   0.0000       0.616383        16.7726 
 165   0.0000       0.619984        16.8706 
 166   0.0000       0.621258        16.9053 
 167   0.0000       0.627765        17.0824 
 168   0.0000       0.637131        17.3372 
 169   0.0000       0.638236        17.3673 
 170   0.0000       0.653824        17.7915 
 171   0.0000       0.656337        17.8598 
 172   0.0000       0.660352        17.9691 
 173   0.0000       0.663034        18.0421 
 174   0.0000       0.670103        18.2344 
 175   0.0000       0.679517        18.4906 
 176   0.0000       0.690012        18.7762 
 177   0.0000       0.699972        19.0472 
 178   0.0000       0.708484        19.2788 
 179   0.0000       0.709806        19.3148 
 180   0.0000       0.717890        19.5348 
 181   0.0000       0.725333        19.7373 
 182   0.0000       0.729330        19.8461 
 183   0.0000       0.738606        20.0985 
 184   0.0000       0.744216        20.2511 
 185   0.0000       0.750583        20.4244 
 186   0.0000       0.754124        20.5208 
 187   0.0000       0.769496        20.9390 
 188   0.0000       0.777583        21.1591 
 189   0.0000       0.779850        21.2208 
 190   0.0000       0.784070        21.3356 
 191   0.0000       0.792013        21.5518 
 192   0.0000       0.794832        21.6285 
 193   0.0000       0.806140        21.9362 
 194   0.0000       0.840947        22.8833 
 195   0.0000       0.868509        23.6333 
 196   0.0000       0.874669        23.8009 
 197   0.0000       0.891102        24.2481 
 198   0.0000       0.896790        24.4029 
 199   0.0000       0.901800        24.5392 
 200   0.0000       0.917820        24.9751 
 201   0.0000       0.930948        25.3324 
 202   0.0000       0.942231        25.6394 
 203   0.0000       0.955599        26.0032 
 204   0.0000       0.962845        26.2003 
 205   0.0000       0.975315        26.5397 
 206   0.0000       0.989007        26.9122 
 207   0.0000       1.010179        27.4884 
 208   0.0000       1.023858        27.8606 
 209   0.0000       1.053349        28.6631 
 210   0.0000       1.069221        29.0950 
 211   0.0000       1.074789        29.2465 
 212   0.0000       1.095912        29.8213 
 213   0.0000       1.118617        30.4391 
 214   0.0000       1.131583        30.7919 
 215   0.0000       1.149090        31.2683 
 216   0.0000       1.162906        31.6443 
 217   0.0000       1.171187        31.8696 
 218   0.0000       1.194729        32.5102 
 219   0.0000       1.202562        32.7234 
 220   0.0000       1.217826        33.1387 
 221   0.0000       1.223872        33.3033 
 222   0.0000       1.242312        33.8050 
 223   0.0000       1.257588        34.2207 
 224   0.0000       1.266196        34.4549 
 225   0.0000       1.276217        34.7276 
 226   0.0000       1.299348        35.3571 
 227   0.0000       1.306599        35.5544 
 228   0.0000       1.309270        35.6271 
 229   0.0000       1.317793        35.8590 
 230   0.0000       1.327712        36.1289 
 231   0.0000       1.334251        36.3068 
 232   0.0000       1.344633        36.5893 
 233   0.0000       1.349945        36.7339 
 234   0.0000       1.362670        37.0801 
 235   0.0000       1.372310        37.3425 
 236   0.0000       1.379342        37.5338 
 237   0.0000       1.382033        37.6070 
 238   0.0000       1.393991        37.9324 
 239   0.0000       1.398829        38.0641 
 240   0.0000       1.412343        38.4318 
 241   0.0000       1.428243        38.8645 
 242   0.0000       1.430260        38.9193 
 243   0.0000       1.433685        39.0126 
 244   0.0000       1.436524        39.0898 
 245   0.0000       1.447221        39.3809 
 246   0.0000       1.455291        39.6005 
 247   0.0000       1.457888        39.6711 
 248   0.0000       1.465991        39.8916 
 249   0.0000       1.468502        39.9600 
 250   0.0000       1.478601        40.2348 
 251   0.0000       1.481232        40.3064 
 252   0.0000       1.495799        40.7028 
 253   0.0000       1.497878        40.7593 
 254   0.0000       1.505183        40.9581 
 255   0.0000       1.511859        41.1398 
 256   0.0000       1.519411        41.3453 
 257   0.0000       1.526163        41.5290 
 258   0.0000       1.533643        41.7325 
 259   0.0000       1.537061        41.8255 
 260   0.0000       1.543465        41.9998 
 261   0.0000       1.556010        42.3412 
 262   0.0000       1.559736        42.4426 
 263   0.0000       1.562801        42.5260 
 264   0.0000       1.575264        42.8651 
 265   0.0000       1.577872        42.9361 
 266   0.0000       1.590237        43.2725 
 267   0.0000       1.602582        43.6085 
 268   0.0000       1.608598        43.7722 
 269   0.0000       1.612908        43.8895 
 270   0.0000       1.621465        44.1223 
 271   0.0000       1.641313        44.6624 
 272   0.0000       1.642055        44.6826 
 273   0.0000       1.656297        45.0701 
 274   0.0000       1.671980        45.4969 
 275   0.0000       1.682478        45.7826 
 276   0.0000       1.701801        46.3084 
 277   0.0000       1.729876        47.0723 
 278   0.0000       1.738417        47.3047 
 279   0.0000       1.747178        47.5431 
 280   0.0000       1.763529        47.9881 
 281   0.0000       1.780294        48.4443 
 282   0.0000       1.789076        48.6832 
 283   0.0000       1.803211        49.0679 
 284   0.0000       1.815689        49.4074 
 285   0.0000       1.837175        49.9921 
 286   0.0000       1.860293        50.6211 
 287   0.0000       1.870926        50.9105 
 288   0.0000       1.918621        52.2083 
 289   0.0000       1.947239        52.9871 
 290   0.0000       1.966746        53.5179 
 291   0.0000       1.983280        53.9678 
 292   0.0000       1.994945        54.2852 
 293   0.0000       2.006734        54.6060 
 294   0.0000       2.031073        55.2683 
 295   0.0000       2.038410        55.4680 
 296   0.0000       2.041396        55.5492 
 297   0.0000       2.050268        55.7906 
 298   0.0000       2.054663        55.9102 
 299   0.0000       2.067047        56.2472 
 300   0.0000       2.072521        56.3962 
 301   0.0000       2.076451        56.5031 
 302   0.0000       2.087443        56.8022 
 303   0.0000       2.102428        57.2100 
 304   0.0000       2.114031        57.5257 
 305   0.0000       2.127983        57.9054 
 306   0.0000       2.138156        58.1822 
 307   0.0000       2.144611        58.3578 
 308   0.0000       2.162680        58.8495 
 309   0.0000       2.163919        58.8832 
 310   0.0000       2.174666        59.1757 
 311   0.0000       2.208626        60.0998 
 312   0.0000       2.221066        60.4383 
 313   0.0000       2.226136        60.5762 
 314   0.0000       2.236685        60.8633 
 315   0.0000       2.244654        61.0801 
 316   0.0000       2.257145        61.4200 
 317   0.0000       2.262923        61.5773 
 318   0.0000       2.266426        61.6726 
 319   0.0000       2.272117        61.8274 
 320   0.0000       2.281561        62.0844 
 321   0.0000       2.287922        62.2575 
 322   0.0000       2.296173        62.4820 
 323   0.0000       2.312444        62.9248 
 324   0.0000       2.321495        63.1711 
 325   0.0000       2.322991        63.2118 
 326   0.0000       2.328065        63.3499 
 327   0.0000       2.352046        64.0024 
 328   0.0000       2.357291        64.1452 
 329   0.0000       2.358163        64.1689 
 330   0.0000       2.364367        64.3377 
 331   0.0000       2.373499        64.5862 
 332   0.0000       2.374872        64.6236 
 333   0.0000       2.382568        64.8330 
 334   0.0000       2.387991        64.9805 
 335   0.0000       2.394982        65.1708 
 336   0.0000       2.413441        65.6731 
 337   0.0000       2.418012        65.7975 
 338   0.0000       2.428583        66.0851 
 339   0.0000       2.454011        66.7770 
 340   0.0000       2.461449        66.9794 
 341   0.0000       2.471035        67.2403 
 342   0.0000       2.497702        67.9659 
 343   0.0000       2.500704        68.0476 
 344   0.0000       2.510551        68.3156 
 345   0.0000       2.537390        69.0459 
 346   0.0000       2.559568        69.6494 
 347   0.0000       2.596101        70.6435 
 348   0.0000       2.602485        70.8172 
 349   0.0000       2.634596        71.6910 
 350   0.0000       2.647769        72.0494 
 351   0.0000       2.666896        72.5699 
 352   0.0000       2.675384        72.8009 
 353   0.0000       2.681928        72.9790 
 354   0.0000       2.687621        73.1339 
 355   0.0000       2.698429        73.4280 
 356   0.0000       2.700289        73.4786 
 357   0.0000       2.728893        74.2570 
 358   0.0000       2.736345        74.4597 
 359   0.0000       2.767353        75.3035 
 360   0.0000       2.769998        75.3755 
 361   0.0000       2.786221        75.8169 
 362   0.0000       2.801722        76.2387 
 363   0.0000       2.805044        76.3291 
 364   0.0000       2.820300        76.7443 
 365   0.0000       2.855964        77.7147 
 366   0.0000       2.885039        78.5059 
 367   0.0000       2.896660        78.8221 
 368   0.0000       2.919695        79.4489 
 369   0.0000       2.924129        79.5696 
 370   0.0000       2.946943        80.1904 
 371   0.0000       2.960875        80.5695 
 372   0.0000       2.967837        80.7589 
 373   0.0000       2.988223        81.3137 
 374   0.0000       3.005187        81.7753 
 375   0.0000       3.030788        82.4719 
 376   0.0000       3.074366        83.6578 
 377   0.0000       3.091180        84.1153 
 378   0.0000       3.099559        84.3433 
 379   0.0000       3.106912        84.5434 
 380   0.0000       3.125040        85.0367 
 381   0.0000       3.139494        85.4300 
 382   0.0000       3.170463        86.2727 
 383   0.0000       3.178768        86.4987 
 384   0.0000       3.202950        87.1567 
 385   0.0000       3.206749        87.2601 
 386   0.0000       3.218550        87.5812 
 387   0.0000       3.224975        87.7560 
 388   0.0000       3.244978        88.3003 
 389   0.0000       3.251203        88.4697 
 390   0.0000       3.260141        88.7129 
 391   0.0000       3.269144        88.9579 
 392   0.0000       3.280320        89.2620 
 393   0.0000       3.289973        89.5247 
 394   0.0000       3.291568        89.5681 
 395   0.0000       3.298386        89.7537 
 396   0.0000       3.303986        89.9060 
 397   0.0000       3.314220        90.1845 
 398   0.0000       3.321834        90.3917 
 399   0.0000       3.330842        90.6368 
 400   0.0000       3.334647        90.7404 
 401   0.0000       3.340627        90.9031 
 402   0.0000       3.347165        91.0810 
 403   0.0000       3.364268        91.5464 
 404   0.0000       3.397818        92.4593 
 405   0.0000       3.405495        92.6682 
 406   0.0000       3.415046        92.9281 
 407   0.0000       3.422881        93.1413 
 408   0.0000       3.437919        93.5505 
 409   0.0000       3.447661        93.8156 
 410   0.0000       3.461968        94.2049 
 411   0.0000       3.469156        94.4005 
 412   0.0000       3.474847        94.5554 
 413   0.0000       3.477478        94.6270 
 414   0.0000       3.507083        95.4326 
 415   0.0000       3.515950        95.6739 
 416   0.0000       3.528700        96.0208 
 417   0.0000       3.591134        97.7197 
 418   0.0000       3.600713        97.9804 
 419   0.0000       3.607291        98.1594 
 420   0.0000       3.620192        98.5104 
 421   0.0000       3.645007        99.1857 
 422   0.0000       3.683664       100.2376 
 423   0.0000       3.698757       100.6483 
 424   0.0000       3.732039       101.5539 
 425   0.0000       3.749254       102.0224 
 426   0.0000       3.824458       104.0688 
 427   0.0000       3.843078       104.5755 
 428   0.0000       3.986373       108.4747 
 429   0.0000       4.066145       110.6454 
 430   0.0000       4.080068       111.0243 
 431   0.0000       4.116282       112.0097 
 432   0.0000       4.146241       112.8250 
 433   0.0000       4.151917       112.9794 
 434   0.0000       4.258348       115.8755 
 435   0.0000       4.362559       118.7113 
 436   0.0000       4.457744       121.3014 
 437   0.0000       4.587571       124.8342 
 438   0.0000       4.686957       127.5386 
 439   0.0000       4.790832       130.3652 
 440   0.0000      21.459063       583.9308 
 441   0.0000      21.484388       584.6199 
 442   0.0000      21.878771       595.3516 
 443   0.0000      21.928769       596.7121 
 444   0.0000      22.017428       599.1247 
 445   0.0000      22.039390       599.7223 
 446   0.0000      22.071330       600.5914 
 447   0.0000      22.142542       602.5292 
 448   0.0000      22.188604       603.7826 
 449   0.0000      22.195384       603.9671 
 450   0.0000      22.235989       605.0720 
 451   0.0000      22.254315       605.5707 
 452   0.0000      22.325841       607.5170 
 453   0.0000      22.353915       608.2810 
 454   0.0000      32.073289       872.7586 
 455   0.0000      43.607851      1186.6300 
 456   0.0000      43.732952      1190.0341 
 457   0.0000      57.182304      1556.0096 
 458   0.0000      57.206864      1556.6779 
 459   0.0000      57.295441      1559.0882 
Total SCF time: 0 days 0 hours 0 min 24 sec 

Maximum memory used throughout the entire SCF-calculation: 85.3 MB


-------------------------------------------------------------------------------
                          DFT DISPERSION CORRECTION                            
                                                                               
                                 DFTD4 V2.5                                    
-------------------------------------------------------------------------------
Starting D4
-------------------------   ----------------
Dispersion correction           -0.013406323
-------------------------   ----------------

------------------   -----------------
gCP correction             0.017519652
------------------   -----------------

-------------------------   --------------------
FINAL SINGLE POINT ENERGY     -1044.163303152521
-------------------------   --------------------

                                *** OPTIMIZATION RUN DONE ***

                            ***************************************
                            *     ORCA property calculations      *
                            ***************************************

                                    ---------------------
                                    Active property flags
                                    ---------------------
   (+) Dipole Moment


------------------------------------------------------------------------------
                       ORCA ELECTRIC PROPERTIES CALCULATION
------------------------------------------------------------------------------

Dipole Moment Calculation                       ... on
Quadrupole Moment Calculation                   ... off
Polarizability Calculation                      ... off
GBWName                                         ... opt_2.gbw
Electron density                                ... opt_2.scfp
The origin for moment calculation is the CENTER OF MASS  = ( 0.007017, -0.005420 -0.034892)

-------------
DIPOLE MOMENT
-------------
                                X             Y             Z
Electronic contribution:    -18.89953       3.58579      -5.69251
Nuclear contribution   :     19.78731      -2.37104       6.28257
                        -----------------------------------------
Total Dipole Moment    :      0.88779       1.21475       0.59006
                        -----------------------------------------
Magnitude (a.u.)       :      1.61615
Magnitude (Debye)      :      4.10793



--------------------
Rotational spectrum 
--------------------
 
Rotational constants in cm-1:     0.020295     0.005877     0.005080 
Rotational constants in MHz :   608.439320   176.183728   152.299247 

 Dipole components along the rotational axes: 
x,y,z [a.u.] :     0.899336    -1.220467     0.559999 
x,y,z [Debye]:     2.285930    -3.102181     1.423404 

 

Timings for individual modules:

Sum of individual times         ...      367.662 sec (=   6.128 min)
GTO integral calculation        ...       16.792 sec (=   0.280 min)   4.6 %
SCF iterations                  ...      302.257 sec (=   5.038 min)  82.2 %
SCF Gradient evaluation         ...       48.084 sec (=   0.801 min)  13.1 %
Geometry relaxation             ...        0.529 sec (=   0.009 min)   0.1 %
                             ****ORCA TERMINATED NORMALLY****
TOTAL RUN TIME: 0 days 0 hours 6 minutes 21 seconds 195 msec
