
                                 *****************
                                 * O   R   C   A *
                                 *****************

                                            #,                                       
                                            ###                                      
                                            ####                                     
                                            #####                                    
                                            ######                                   
                                           ########,                                 
                                     ,,################,,,,,                         
                               ,,#################################,,                 
                          ,,##########################################,,             
                       ,#########################################, ''#####,          
                    ,#############################################,,   '####,        
                  ,##################################################,,,,####,       
                ,###########''''           ''''###############################       
              ,#####''   ,,,,##########,,,,          '''####'''          '####       
            ,##' ,,,,###########################,,,                        '##       
           ' ,,###''''                  '''############,,,                           
         ,,##''                                '''############,,,,        ,,,,,,###''
      ,#''                                            '''#######################'''  
     '                                                          ''''####''''         
             ,#######,   #######,   ,#######,      ##                                
            ,#'     '#,  ##    ##  ,#'     '#,    #''#        ######   ,####,        
            ##       ##  ##   ,#'  ##            #'  '#       #        #'  '#        
            ##       ##  #######   ##           ,######,      #####,   #    #        
            '#,     ,#'  ##    ##  '#,     ,#' ,#      #,         ##   #,  ,#        
             '#######'   ##     ##  '#######'  #'      '#     #####' # '####'        



                  #######################################################
                  #                        -***-                        #
                  #          Department of theory and spectroscopy      #
                  #    Directorship and core code : Frank Neese         #
                  #        Max Planck Institute fuer Kohlenforschung    #
                  #                Kaiser Wilhelm Platz 1               #
                  #                 D-45470 Muelheim/Ruhr               #
                  #                      Germany                        #
                  #                                                     #
                  #                  All rights reserved                #
                  #                        -***-                        #
                  #######################################################


                         Program Version 5.0.1 -  RELEASE  -


 With contributions from (in alphabetic order):
   Daniel Aravena         : Magnetic Suceptibility
   Michael Atanasov       : Ab Initio Ligand Field Theory (pilot matlab implementation)
   Alexander A. Auer      : GIAO ZORA, VPT2 properties, NMR spectrum
   Ute Becker             : Parallelization
   Giovanni Bistoni       : ED, misc. LED, open-shell LED, HFLD
   Martin Brehm           : Molecular dynamics
   Dmytro Bykov           : SCF Hessian
   Vijay G. Chilkuri      : MRCI spin determinant printing, contributions to CSF-ICE
   Dipayan Datta          : RHF DLPNO-CCSD density
   Achintya Kumar Dutta   : EOM-CC, STEOM-CC
   Dmitry Ganyushin       : Spin-Orbit,Spin-Spin,Magnetic field MRCI
   Miquel Garcia          : C-PCM and meta-GGA Hessian, CC/C-PCM, Gaussian charge scheme
   Yang Guo               : DLPNO-NEVPT2, F12-NEVPT2, CIM, IAO-localization
   Andreas Hansen         : Spin unrestricted coupled pair/coupled cluster methods
   Benjamin Helmich-Paris : MC-RPA, TRAH-SCF, COSX integrals
   Lee Huntington         : MR-EOM, pCC
   Robert Izsak           : Overlap fitted RIJCOSX, COSX-SCS-MP3, EOM
   Marcus Kettner         : VPT2
   Christian Kollmar      : KDIIS, OOCD, Brueckner-CCSD(T), CCSD density, CASPT2, CASPT2-K
   Simone Kossmann        : Meta GGA functionals, TD-DFT gradient, OOMP2, MP2 Hessian
   Martin Krupicka        : Initial AUTO-CI
   Lucas Lang             : DCDCAS
   Marvin Lechner         : AUTO-CI (C++ implementation), FIC-MRCC
   Dagmar Lenk            : GEPOL surface, SMD
   Dimitrios Liakos       : Extrapolation schemes; Compound Job, initial MDCI parallelization
   Dimitrios Manganas     : Further ROCIS development; embedding schemes
   Dimitrios Pantazis     : SARC Basis sets
   Anastasios Papadopoulos: AUTO-CI, single reference methods and gradients
   Taras Petrenko         : DFT Hessian,TD-DFT gradient, ASA, ECA, R-Raman, ABS, FL, XAS/XES, NRVS
   Peter Pinski           : DLPNO-MP2, DLPNO-MP2 Gradient
   Christoph Reimann      : Effective Core Potentials
   Marius Retegan         : Local ZFS, SOC
   Christoph Riplinger    : Optimizer, TS searches, QM/MM, DLPNO-CCSD(T), (RO)-DLPNO pert. Triples
   Tobias Risthaus        : Range-separated hybrids, TD-DFT gradient, RPA, STAB
   Michael Roemelt        : Original ROCIS implementation
   Masaaki Saitow         : Open-shell DLPNO-CCSD energy and density
   Barbara Sandhoefer     : DKH picture change effects
   Avijit Sen             : IP-ROCIS
   Kantharuban Sivalingam : CASSCF convergence, NEVPT2, FIC-MRCI
   Bernardo de Souza      : ESD, SOC TD-DFT
   Georgi Stoychev        : AutoAux, RI-MP2 NMR, DLPNO-MP2 response
   Willem Van den Heuvel  : Paramagnetic NMR
   Boris Wezisla          : Elementary symmetry handling
   Frank Wennmohs         : Technical directorship


 We gratefully acknowledge several colleagues who have allowed us to
 interface, adapt or use parts of their codes:
   Stefan Grimme, W. Hujo, H. Kruse, P. Pracht,  : VdW corrections, initial TS optimization,
                  C. Bannwarth, S. Ehlert          DFT functionals, gCP, sTDA/sTD-DF
   Ed Valeev, F. Pavosevic, A. Kumar             : LibInt (2-el integral package), F12 methods
   Garnet Chan, S. Sharma, J. Yang, R. Olivares  : DMRG
   Ulf Ekstrom                                   : XCFun DFT Library
   Mihaly Kallay                                 : mrcc  (arbitrary order and MRCC methods)
   Jiri Pittner, Ondrej Demel                    : Mk-CCSD
   Frank Weinhold                                : gennbo (NPA and NBO analysis)
   Christopher J. Cramer and Donald G. Truhlar   : smd solvation model
   Lars Goerigk                                  : TD-DFT with DH, B97 family of functionals
   V. Asgeirsson, H. Jonsson                     : NEB implementation
   FAccTs GmbH                                   : IRC, NEB, NEB-TS, DLPNO-Multilevel, CI-OPT
                                                   MM, QMMM, 2- and 3-layer-ONIOM, Crystal-QMMM,
                                                   LR-CPCM, SF, NACMEs, symmetry and pop. for TD-DFT,
                                                   nearIR, NL-DFT gradient (VV10), updates on ESD,
                                                   ML-optimized integration grids
   S Lehtola, MJT Oliveira, MAL Marques          : LibXC Library
   Liviu Ungur et al                             : ANISO software


 Your calculation uses the libint2 library for the computation of 2-el integrals
 For citations please refer to: http://libint.valeyev.net

 Your ORCA version has been built with support for libXC version: 5.1.0
 For citations please refer to: https://tddft.org/programs/libxc/

 This ORCA versions uses:
   CBLAS   interface :  Fast vector & matrix operations
   LAPACKE interface :  Fast linear algebra routines
   SCALAPACK package :  Parallel linear algebra routines
   Shared memory     :  Shared parallel matrices
   BLAS/LAPACK       :  OpenBLAS 0.3.15  USE64BITINT DYNAMIC_ARCH NO_AFFINITY SkylakeX SINGLE_THREADED
        Core in use  :  SkylakeX
   Copyright (c) 2011-2014, The OpenBLAS Project


Your calculation utilizes the geometrical counterpoise correction gCP
Please cite in your paper:
H.Kruse, S. Grimme J.Chem.Phys., 136, (2012), 154101 
   

Your calculation utilizes the atom-pairwise dispersion correction
based on tight binding partial charges (D4)
Cite in your paper:
E.Caldeweyher, C.Bannwarth, S.Grimme, J.Chem.Phys., (2017), 147, 034112.
E.Caldeweyher, S.Ehlert, A.Hansen, H.Neugebauer, S.Grimme, J.Chem.Phys., (2018), in progress.
   

Your calculation utilizes the SMD solvation module
Please cite in your paper:
A.V. Marenich, C.J. Cramer, D.G. Truhlar J. Phys. Chem. B, 113, (2009), 6378 

================================================================================

----- Orbital basis set information -----
Your calculation utilizes the basis: def2-mTZVPP
   Stefan Grimme, Andreas Hansen, Sebastian Ehlert, and Jan-Michael Mewes 
   J. Chem. Phys. 154, 000000 (2021). DOI: 10.1063/5.0040021

----- AuxJ basis set information -----
Your calculation utilizes the basis: def2-mTZVPP/J
   Stefan Grimme, Andreas Hansen, Sebastian Ehlert, and Jan-Michael Mewes 
   J. Chem. Phys. 154, 000000 (2021). DOI: 10.1063/5.0040021

================================================================================
                                        WARNINGS
                       Please study these warnings very carefully!
================================================================================

Using LibXC functional ID 497 : Re-regularized SCAN exchange by Furness et al
[ 1]  J. W. Furness, A. D. Kaplan, J. Ning, J. P. Perdew, and J. Sun, J. Phys. Chem. Lett. 11, 8208 (2020)
[ 2]  J. W. Furness, A. D. Kaplan, J. Ning, J. P. Perdew, and J. Sun, J. Phys. Chem. Lett. 11, 9248 (2020)
Using LibXC functional ID 498 : Re-regularized SCAN correlation by Furness et al
[ 1]  J. W. Furness, A. D. Kaplan, J. Ning, J. P. Perdew, and J. Sun, J. Phys. Chem. Lett. 11, 8208 (2020)
[ 2]  J. W. Furness, A. D. Kaplan, J. Ning, J. P. Perdew, and J. Sun, J. Phys. Chem. Lett. 11, 9248 (2020)
Using LibXC functional ID 497 : Re-regularized SCAN exchange by Furness et al
[ 1]  J. W. Furness, A. D. Kaplan, J. Ning, J. P. Perdew, and J. Sun, J. Phys. Chem. Lett. 11, 8208 (2020)
[ 2]  J. W. Furness, A. D. Kaplan, J. Ning, J. P. Perdew, and J. Sun, J. Phys. Chem. Lett. 11, 9248 (2020)
Using LibXC functional ID 498 : Re-regularized SCAN correlation by Furness et al
[ 1]  J. W. Furness, A. D. Kaplan, J. Ning, J. P. Perdew, and J. Sun, J. Phys. Chem. Lett. 11, 8208 (2020)
[ 2]  J. W. Furness, A. D. Kaplan, J. Ning, J. P. Perdew, and J. Sun, J. Phys. Chem. Lett. 11, 9248 (2020)

INFO   : the flag for use of the SHARK integral package has been found!

================================================================================
                                       INPUT FILE
================================================================================
NAME = opt_0.inp
|  1> ! r2SCAN-3c opt tightSCF noautostart miniprint nopop
|  2> %maxcore  7000
|  3> %pal nprocs   48 end
|  4> %cpcm
|  5> smd true
|  6> SMDsolvent "water"
|  7> end
|  8> * xyz   0   1
|  9> C 3.279 2.580 0.544
| 10> C 1.982 2.550 1.044
| 11> C 1.244 1.389 1.000
| 12> C 1.769 0.216 0.441
| 13> C 3.092 0.244 -0.065
| 14> C 3.823 1.435 0.007
| 15> C 3.711 -0.967 -0.628
| 16> O 3.354 -2.103 -0.349
| 17> O 4.715 -0.816 -1.492
| 18> N 1.053 -0.952 0.431
| 19> C -0.313 -1.127 0.439
| 20> C -0.824 -2.365 0.851
| 21> C -2.182 -2.601 0.870
| 22> C -3.078 -1.619 0.471
| 23> C -2.572 -0.405 0.030
| 24> C -1.208 -0.151 -0.001
| 25> C -3.483 0.680 -0.449
| 26> F -3.302 1.845 0.217
| 27> F -3.289 0.991 -1.753
| 28> F -4.790 0.394 -0.334
| 29> H 3.861 3.486 0.595
| 30> H 1.555 3.434 1.491
| 31> H 0.262 1.362 1.444
| 32> H 4.854 1.455 -0.317
| 33> H 4.885 0.109 -1.743
| 34> H 1.616 -1.792 0.325
| 35> H -0.136 -3.136 1.159
| 36> H -2.556 -3.557 1.199
| 37> H -4.141 -1.793 0.492
| 38> H -0.853 0.789 -0.395
| 39> *
| 40> 
| 41>                          ****END OF INPUT****
================================================================================

                       *****************************
                       * Geometry Optimization Run *
                       *****************************

Geometry optimization settings:
Update method            Update   .... BFGS
Choice of coordinates    CoordSys .... Z-matrix Internals
Initial Hessian          InHess   .... Almoef's Model

Convergence Tolerances:
Energy Change            TolE     ....  5.0000e-06 Eh
Max. Gradient            TolMAXG  ....  3.0000e-04 Eh/bohr
RMS Gradient             TolRMSG  ....  1.0000e-04 Eh/bohr
Max. Displacement        TolMAXD  ....  4.0000e-03 bohr
RMS Displacement         TolRMSD  ....  2.0000e-03 bohr
Strict Convergence                ....  False
------------------------------------------------------------------------------
                        ORCA OPTIMIZATION COORDINATE SETUP
------------------------------------------------------------------------------

The optimization will be done in new redundant internal coordinates
Making redundant internal coordinates   ...  (new redundants) done
Evaluating the initial hessian          ...  (Almloef) done
Evaluating the coordinates              ...  done
Calculating the B-matrix                .... done
Calculating the G-matrix                .... done
Diagonalizing the G-matrix              .... done
Small eigenvalue found = 3.982e-03
Small eigenvalue found = 1.530e-02
Small eigenvalue found = 1.715e-02
The first mode is                       ....   64
The number of degrees of freedom        ....   84

    -----------------------------------------------------------------
                    Redundant Internal Coordinates


    -----------------------------------------------------------------
         Definition                    Initial Value    Approx d2E/dq
    -----------------------------------------------------------------
      1. B(C   1,C   0)                  1.3904         0.623964   
      2. B(C   2,C   1)                  1.3764         0.656784   
      3. B(C   3,C   2)                  1.4014         0.599082   
      4. B(C   4,C   3)                  1.4167         0.566342   
      5. B(C   5,C   4)                  1.3993         0.603822   
      6. B(C   5,C   0)                  1.3767         0.656058   
      7. B(C   6,C   4)                  1.4720         0.462365   
      8. B(O   7,C   6)                  1.2230         1.033418   
      9. B(O   8,C   6)                  1.3332         0.689543   
     10. B(N   9,C   3)                  1.3700         0.602196   
     11. B(C  10,N   9)                  1.3772         0.586566   
     12. B(C  11,C  10)                  1.4013         0.599495   
     13. B(C  12,C  11)                  1.3785         0.651793   
     14. B(C  13,C  12)                  1.3879         0.629573   
     15. B(C  14,C  13)                  1.3872         0.631265   
     16. B(C  15,C  14)                  1.3878         0.629880   
     17. B(C  15,C  10)                  1.3954         0.612476   
     18. B(C  16,C  14)                  1.4955         0.424018   
     19. B(F  17,C  16)                  1.3541         0.593293   
     20. B(F  18,C  16)                  1.3545         0.592303   
     21. B(F  19,C  16)                  1.3429         0.618269   
     22. B(H  20,C   0)                  1.0780         0.376280   
     23. B(H  21,C   1)                  1.0787         0.375363   
     24. B(H  22,C   2)                  1.0780         0.376262   
     25. B(H  23,C   5)                  1.0809         0.372347   
     26. B(H  24,O   8)                  0.9734         0.494963   
     27. B(H  25,N   9)                  1.0168         0.422091   
     28. B(H  26,C  11)                  1.0783         0.375968   
     29. B(H  27,C  12)                  1.0780         0.376349   
     30. B(H  28,C  13)                  1.0774         0.377227   
     31. B(H  29,C  15)                  1.0793         0.374554   
     32. A(C   5,C   0,H  20)          120.2713         0.358980   
     33. A(C   1,C   0,H  20)          120.3140         0.355932   
     34. A(C   1,C   0,C   5)          119.4023         0.439014   
     35. A(C   0,C   1,C   2)          120.4561         0.439102   
     36. A(C   2,C   1,H  21)          119.4889         0.358898   
     37. A(C   0,C   1,H  21)          120.0400         0.355785   
     38. A(C   1,C   2,C   3)          121.1913         0.435892   
     39. A(C   1,C   2,H  22)          119.7599         0.359044   
     40. A(C   3,C   2,H  22)          118.9833         0.353482   
     41. A(C   2,C   3,C   4)          118.4080         0.424452   
     42. A(C   4,C   3,N   9)          120.1510         0.422082   
     43. A(C   2,C   3,N   9)          121.3793         0.426346   
     44. A(C   3,C   4,C   5)          119.0967         0.425051   
     45. A(C   5,C   4,C   6)          120.0160         0.409971   
     46. A(C   3,C   4,C   6)          120.8674         0.405350   
     47. A(C   0,C   5,C   4)          121.4352         0.436424   
     48. A(C   4,C   5,H  23)          119.9085         0.353328   
     49. A(C   0,C   5,H  23)          118.5833         0.358338   
     50. A(C   4,C   6,O   8)          118.1251         0.417040   
     51. A(O   7,C   6,O   8)          118.2213         0.479298   
     52. A(C   4,C   6,O   7)          123.6536         0.448499   
     53. A(C   6,O   8,H  24)          113.9707         0.373769   
     54. A(C   3,N   9,C  10)          128.8042         0.421976   
     55. A(C  10,N   9,H  25)          116.4135         0.353813   
     56. A(C   3,N   9,H  25)          114.5636         0.355394   
     57. A(N   9,C  10,C  11)          118.4040         0.424397   
     58. A(C  11,C  10,C  15)          118.4739         0.430504   
     59. A(N   9,C  10,C  15)          123.0564         0.426027   
     60. A(C  12,C  11,H  26)          120.1475         0.358531   
     61. A(C  10,C  11,H  26)          118.8838         0.353476   
     62. A(C  10,C  11,C  12)          120.9683         0.435347   
     63. A(C  13,C  12,H  27)          119.4214         0.356485   
     64. A(C  11,C  12,H  27)          119.8561         0.358593   
     65. A(C  11,C  12,C  13)          120.7225         0.439206   
     66. A(C  14,C  13,H  28)          120.4938         0.356788   
     67. A(C  12,C  13,H  28)          121.1374         0.356626   
     68. A(C  12,C  13,C  14)          118.3661         0.436679   
     69. A(C  15,C  14,C  16)          117.3077         0.406767   
     70. A(C  13,C  14,C  16)          120.9669         0.406925   
     71. A(C  13,C  14,C  15)          121.7211         0.436717   
     72. A(C  14,C  15,H  29)          119.3958         0.356225   
     73. A(C  10,C  15,H  29)          120.8845         0.354535   
     74. A(C  10,C  15,C  14)          119.6915         0.434347   
     75. A(F  18,C  16,F  19)          105.7083         0.420966   
     76. A(F  17,C  16,F  19)          105.7367         0.421092   
     77. A(C  14,C  16,F  19)          114.2639         0.401075   
     78. A(F  17,C  16,F  18)          104.8810         0.417883   
     79. A(C  14,C  16,F  18)          112.8095         0.398060   
     80. A(C  14,C  16,F  17)          112.6582         0.398176   
     81. D(C   2,C   1,C   0,H  20)   -178.9449         0.026962   
     82. D(H  21,C   1,C   0,H  20)     -0.3630         0.026962   
     83. D(C   2,C   1,C   0,C   5)     -0.2208         0.026962   
     84. D(H  21,C   1,C   0,C   5)    178.3612         0.026962   
     85. D(H  22,C   2,C   1,C   0)    176.3268         0.030079   
     86. D(H  22,C   2,C   1,H  21)     -2.2630         0.030079   
     87. D(C   3,C   2,C   1,C   0)     -0.6994         0.030079   
     88. D(C   3,C   2,C   1,H  21)   -179.2892         0.030079   
     89. D(N   9,C   3,C   2,H  22)      0.9812         0.024738   
     90. D(N   9,C   3,C   2,C   1)    178.0300         0.024738   
     91. D(C   4,C   3,C   2,H  22)   -176.1656         0.024738   
     92. D(C   4,C   3,C   2,C   1)      0.8832         0.024738   
     93. D(C   6,C   4,C   3,C   2)    178.2078         0.021990   
     94. D(C   5,C   4,C   3,N   9)   -177.3524         0.021990   
     95. D(C   5,C   4,C   3,C   2)     -0.1694         0.021990   
     96. D(C   6,C   4,C   3,N   9)      1.0248         0.021990   
     97. D(H  23,C   5,C   4,C   6)     -2.2849         0.025152   
     98. D(C   0,C   5,C   4,C   6)   -179.1338         0.025152   
     99. D(C   0,C   5,C   4,C   3)     -0.7425         0.025152   
    100. D(H  23,C   5,C   0,H  20)      2.7794         0.030008   
    101. D(H  23,C   5,C   0,C   1)   -175.9453         0.030008   
    102. D(H  23,C   5,C   4,C   3)    176.1064         0.025152   
    103. D(C   4,C   5,C   0,H  20)    179.6689         0.030008   
    104. D(C   4,C   5,C   0,C   1)      0.9442         0.030008   
    105. D(O   8,C   6,C   4,C   5)    -24.9647         0.014561   
    106. D(O   8,C   6,C   4,C   3)    156.6729         0.014561   
    107. D(O   7,C   6,C   4,C   5)    155.1656         0.014561   
    108. D(O   7,C   6,C   4,C   3)    -23.1968         0.014561   
    109. D(H  24,O   8,C   6,O   7)    173.7435         0.035505   
    110. D(H  24,O   8,C   6,C   4)     -6.1334         0.035505   
    111. D(C  10,N   9,C   3,C   2)     26.8026         0.029236   
    112. D(H  25,N   9,C   3,C   4)     18.2739         0.029236   
    113. D(H  25,N   9,C   3,C   2)   -158.8238         0.029236   
    114. D(C  10,N   9,C   3,C   4)   -156.0997         0.029236   
    115. D(C  15,C  10,N   9,H  25)   -151.1480         0.027637   
    116. D(C  15,C  10,N   9,C   3)     23.1380         0.027637   
    117. D(C  11,C  10,N   9,H  25)     25.8555         0.027637   
    118. D(C  11,C  10,N   9,C   3)   -159.8585         0.027637   
    119. D(H  26,C  11,C  10,C  15)    177.8498         0.024774   
    120. D(H  26,C  11,C  10,N   9)      0.7067         0.024774   
    121. D(C  12,C  11,C  10,C  15)     -2.3726         0.024774   
    122. D(C  12,C  11,C  10,N   9)   -179.5157         0.024774   
    123. D(H  27,C  12,C  11,H  26)      0.3451         0.029591   
    124. D(H  27,C  12,C  11,C  10)   -179.4297         0.029591   
    125. D(C  13,C  12,C  11,H  26)   -179.7396         0.029591   
    126. D(C  13,C  12,C  11,C  10)      0.4856         0.029591   
    127. D(H  28,C  13,C  12,H  27)      0.5000         0.027480   
    128. D(H  28,C  13,C  12,C  11)   -179.4157         0.027480   
    129. D(C  14,C  13,C  12,H  27)   -178.9115         0.027480   
    130. D(C  14,C  13,C  12,C  11)      1.1729         0.027480   
    131. D(C  16,C  14,C  13,H  28)     -1.1168         0.027637   
    132. D(C  16,C  14,C  13,C  12)    178.2985         0.027637   
    133. D(C  15,C  14,C  13,H  28)    179.6531         0.027637   
    134. D(C  15,C  14,C  13,C  12)     -0.9316         0.027637   
    135. D(H  29,C  15,C  14,C  16)     -2.1420         0.027508   
    136. D(H  29,C  15,C  14,C  13)    177.1150         0.027508   
    137. D(C  10,C  15,C  14,C  16)    179.7703         0.027508   
    138. D(C  10,C  15,C  14,C  13)     -0.9726         0.027508   
    139. D(H  29,C  15,C  10,C  11)   -175.4708         0.025920   
    140. D(H  29,C  15,C  10,N   9)      1.5307         0.025920   
    141. D(C  14,C  15,C  10,C  11)      2.5877         0.025920   
    142. D(C  14,C  15,C  10,N   9)    179.5893         0.025920   
    143. D(F  17,C  16,C  14,C  13)    124.4061         0.013287   
    144. D(F  19,C  16,C  14,C  15)   -177.0314         0.013287   
    145. D(F  19,C  16,C  14,C  13)      3.7056         0.013287   
    146. D(F  18,C  16,C  14,C  15)     62.1889         0.013287   
    147. D(F  18,C  16,C  14,C  13)   -117.0741         0.013287   
    148. D(F  17,C  16,C  14,C  15)    -56.3309         0.013287   
    -----------------------------------------------------------------

Number of atoms                         .... 30
Number of degrees of freedom            .... 148

         *************************************************************
         *                GEOMETRY OPTIMIZATION CYCLE   1            *
         *************************************************************
---------------------------------
CARTESIAN COORDINATES (ANGSTROEM)
---------------------------------
  C      3.279000    2.580000    0.544000
  C      1.982000    2.550000    1.044000
  C      1.244000    1.389000    1.000000
  C      1.769000    0.216000    0.441000
  C      3.092000    0.244000   -0.065000
  C      3.823000    1.435000    0.007000
  C      3.711000   -0.967000   -0.628000
  O      3.354000   -2.103000   -0.349000
  O      4.715000   -0.816000   -1.492000
  N      1.053000   -0.952000    0.431000
  C     -0.313000   -1.127000    0.439000
  C     -0.824000   -2.365000    0.851000
  C     -2.182000   -2.601000    0.870000
  C     -3.078000   -1.619000    0.471000
  C     -2.572000   -0.405000    0.030000
  C     -1.208000   -0.151000   -0.001000
  C     -3.483000    0.680000   -0.449000
  F     -3.302000    1.845000    0.217000
  F     -3.289000    0.991000   -1.753000
  F     -4.790000    0.394000   -0.334000
  H      3.861000    3.486000    0.595000
  H      1.555000    3.434000    1.491000
  H      0.262000    1.362000    1.444000
  H      4.854000    1.455000   -0.317000
  H      4.885000    0.109000   -1.743000
  H      1.616000   -1.792000    0.325000
  H     -0.136000   -3.136000    1.159000
  H     -2.556000   -3.557000    1.199000
  H     -4.141000   -1.793000    0.492000
  H     -0.853000    0.789000   -0.395000

----------------------------
CARTESIAN COORDINATES (A.U.)
----------------------------
  NO LB      ZA    FRAG     MASS         X           Y           Z
   0 C     6.0000    0    12.011    6.196412    4.875493    1.028011
   1 C     6.0000    0    12.011    3.745437    4.818802    1.972874
   2 C     6.0000    0    12.011    2.350819    2.624830    1.889726
   3 C     6.0000    0    12.011    3.342926    0.408181    0.833369
   4 C     6.0000    0    12.011    5.843033    0.461093   -0.122832
   5 C     6.0000    0    12.011    7.224423    2.711757    0.013228
   6 C     6.0000    0    12.011    7.012774   -1.827365   -1.186748
   7 O     8.0000    0    15.999    6.338141   -3.974094   -0.659514
   8 O     8.0000    0    15.999    8.910059   -1.542017   -2.819471
   9 N     7.0000    0    14.007    1.989882   -1.799019    0.814472
  10 C     6.0000    0    12.011   -0.591484   -2.129721    0.829590
  11 C     6.0000    0    12.011   -1.557134   -4.469202    1.608157
  12 C     6.0000    0    12.011   -4.123382   -4.915178    1.644062
  13 C     6.0000    0    12.011   -5.816577   -3.059467    0.890061
  14 C     6.0000    0    12.011   -4.860376   -0.765339    0.056692
  15 C     6.0000    0    12.011   -2.282789   -0.285349   -0.001890
  16 C     6.0000    0    12.011   -6.581916    1.285014   -0.848487
  17 F     9.0000    0    18.998   -6.239876    3.486545    0.410071
  18 F     9.0000    0    18.998   -6.215309    1.872719   -3.312690
  19 F     9.0000    0    18.998   -9.051788    0.744552   -0.631169
  20 H     1.0000    0     1.008    7.296233    6.587585    1.124387
  21 H     1.0000    0     1.008    2.938524    6.489320    2.817582
  22 H     1.0000    0     1.008    0.495108    2.573807    2.728765
  23 H     1.0000    0     1.008    9.172731    2.749552   -0.599043
  24 H     1.0000    0     1.008    9.231312    0.205980   -3.293793
  25 H     1.0000    0     1.008    3.053797   -3.386389    0.614161
  26 H     1.0000    0     1.008   -0.257003   -5.926181    2.190193
  27 H     1.0000    0     1.008   -4.830140   -6.721756    2.265782
  28 H     1.0000    0     1.008   -7.825356   -3.388279    0.929745
  29 H     1.0000    0     1.008   -1.611936    1.490994   -0.746442



           ************************************************************
           *        Program running with 48 parallel MPI-processes    *
           *              working on a common directory               *
           ************************************************************
------------------------------------------------------------------------------
                   ___                                                        
                  /   \      - P O W E R E D   B Y -                         
                 /     \                                                     
                 |  |  |   _    _      __       _____    __    __             
                 |  |  |  | |  | |    /  \     |  _  \  |  |  /  |          
                  \  \/   | |  | |   /    \    | | | |  |  | /  /          
                 / \  \   | |__| |  /  /\  \   | |_| |  |  |/  /          
                |  |  |   |  __  | /  /__\  \  |    /   |      \           
                |  |  |   | |  | | |   __   |  |    \   |  |\   \          
                \     /   | |  | | |  |  |  |  | |\  \  |  | \   \       
                 \___/    |_|  |_| |__|  |__|  |_| \__\ |__|  \__/        
                                                                              
                      - O R C A' S   B I G   F R I E N D -                    
                                      &                                       
                       - I N T E G R A L  F E E D E R -                       
                                                                              
 v1 FN, 2020, v2 2021                                                         
------------------------------------------------------------------------------


Reading SHARK input file opt_0.SHARKINP.tmp ... ok
----------------------
SHARK INTEGRAL PACKAGE
----------------------

Number of atoms                             ...     30
Number of basis functions                   ...    460
Number of shells                            ...    216
Maximum angular momentum                    ...      2
Integral batch strategy                     ... SHARK/LIBINT Hybrid
RI-J (if used) integral strategy            ... SPLIT-RIJ (Revised 2003 algorithm where possible)
Printlevel                                  ...      1
Contraction scheme used                     ... SEGMENTED contraction
Coulomb Range Separation                    ... NOT USED
Exchange Range Separation                   ... NOT USED
Finite Nucleus Model                        ... NOT USED
Auxiliary Coulomb fitting basis             ... AVAILABLE
   # of basis functions in Aux-J            ...    725
   # of shells in Aux-J                     ...    293
   Maximum angular momentum in Aux-J        ...      2
Auxiliary J/K fitting basis                 ... NOT available
Auxiliary Correlation fitting basis         ... NOT available
Auxiliary 'external' fitting basis          ... NOT available
Integral threshold                          ...     2.500000e-11
Primitive cut-off                           ...     2.500000e-12
Primitive pair pre-selection threshold      ...     2.500000e-12

Calculating pre-screening integrals         ... done (  0.1 sec) Dimension = 216
Organizing shell pair data                  ... done (  0.1 sec)
Shell pair information
Total number of shell pairs                 ...     23436
Shell pairs after pre-screening             ...     16691
Total number of primitive shell pairs       ...     87206
Primitive shell pairs kept                  ...     39681
          la=0 lb=0:   4872 shell pairs
          la=1 lb=0:   6203 shell pairs
          la=1 lb=1:   1980 shell pairs
          la=2 lb=0:   2067 shell pairs
          la=2 lb=1:   1336 shell pairs
          la=2 lb=2:    233 shell pairs

Calculating one electron integrals          ... done (  0.0 sec)
Calculating RI/J V-Matrix + Cholesky decomp.... done (  0.1 sec)
Calculating Nuclear repulsion               ... done (  0.0 sec) ENN=   1509.062102244969 Eh

SHARK setup successfully completed in   0.4 seconds

Maximum memory used throughout the entire GTOINT-calculation: 25.4 MB


           ************************************************************
           *        Program running with 48 parallel MPI-processes    *
           *              working on a common directory               *
           ************************************************************

Diagonalization of the overlap matrix:
Smallest eigenvalue                        ... 2.053e-05
Time for diagonalization                   ...    0.028 sec
Threshold for overlap eigenvalues          ... 1.000e-08
Number of eigenvalues below threshold      ... 0
Time for construction of square roots      ...    0.034 sec
Total time needed                          ...    0.064 sec

Time for model grid setup =    0.194 sec

Loading Hartree-Fock densities                     ... done
Calculating cut-offs                               ... done
Initializing the effective Hamiltonian             ... done
Setting up the integral package (SHARK)            ... done
Starting the Coulomb interaction                   ... done (   0.1 sec)
Reading the grid                                   ... done
Mapping shells                                     ... done
Starting the XC term evaluation                    ... done (   0.1 sec)
  promolecular density results
     # of electrons  =    143.994685884
     EX              =   -127.518585069
     EC              =     -4.912850950
     EX+EC           =   -132.431436019
Transforming the Hamiltonian                       ... done (   0.0 sec)
Diagonalizing the Hamiltonian                      ... done (   0.0 sec)
Back transforming the eigenvectors                 ... done (   0.0 sec)
Now organizing SCF variables                       ... done
-------------------
DFT GRID GENERATION
-------------------

General Integration Accuracy     IntAcc      ... 4.388
Radial Grid Type                 RadialGrid  ... OptM3 with GC (2021)
Angular Grid (max. ang.)         AngularGrid ... 4 (Lebedev-302)
Angular grid pruning method      GridPruning ... 4 (adaptive)
Weight generation scheme         WeightScheme... Becke
Basis function cutoff            BFCut       ... 1.0000e-11
Integration weight cutoff        WCut        ... 1.0000e-14
Angular grids for H and He will be reduced by one unit
Partially contracted basis set               ... off
Rotationally invariant grid construction     ... off

Total number of grid points                  ...   152543
Total number of batches                      ...     2399
Average number of points per batch           ...       63
Average number of grid points per atom       ...     5085
Time for grid setup =    1.062 sec


--------------------
CPCM SOLVATION MODEL
--------------------
CPCM parameters:
  Epsilon                                         ...      78.3550
  Refrac                                          ...       1.3328
  Rsolv                                           ...       1.3000
  Surface type                                    ... GAUSSIAN VDW
  Epsilon function type                           ...         CPCM
Solvent:                                     ... WATER
SMD-CDS solvent descriptors:
  Soln                                       ...    1.3328
  Soln25                                     ...    1.3323
  Sola                                       ...    0.0000
  Solb                                       ...    0.0000
  Solg                                       ...    0.0000
  Solc                                       ...    0.0000
  Solh                                       ...    0.0000
Radii:
 Radius for C  used is    3.4960 Bohr (=   1.8500 Ang.)
 Radius for O  used is    2.8724 Bohr (=   1.5200 Ang.)
 Radius for N  used is    3.5716 Bohr (=   1.8900 Ang.)
 Radius for F  used is    3.2692 Bohr (=   1.7300 Ang.)
 Radius for H  used is    2.2677 Bohr (=   1.2000 Ang.)
Calculating surface                               ...        done! (  0.0s)
GEPOL surface points                              ...         1722
GEPOL Volume                                      ...    1714.6048
GEPOL Surface-area                                ...     971.7989
Calculating surface distance matrix               ...        done! (  0.0s)
Performing Cholesky decomposition & store         ...        done! (  0.4s)
Overall time for CPCM initialization              ...                 0.4s
--------------
SCF ITERATIONS
--------------
ITER       Energy         Delta-E        Max-DP      RMS-DP      [F,P]     Damp
               ***  Starting incremental Fock matrix formation  ***
  0  -1043.7587111812   0.000000000000 0.04950638  0.00130082  0.2613789 0.7000
  1  -1043.9564738072  -0.197762625953 0.04112262  0.00095563  0.0986480 0.7000
                               ***Turning on DIIS***
  2  -1044.0301761474  -0.073702340235 0.06946347  0.00173098  0.0347443 0.0000
  3  -1044.1515459831  -0.121369835757 0.04226024  0.00067664  0.0432617 0.0000
  4  -1044.1762570288  -0.024711045635 0.02163140  0.00029026  0.0188378 0.0000
  5  -1044.1780630010  -0.001805972177 0.00705835  0.00015311  0.0070228 0.0000
                      *** Initiating the SOSCF procedure ***
                           *** Shutting down DIIS ***
                      *** Re-Reading the Fockian *** 
                      *** Removing any level shift *** 
ITER      Energy       Delta-E        Grad      Rot      Max-DP    RMS-DP
  6  -1044.17817621  -0.0001132052  0.000323  0.000323  0.002446  0.000062
               *** Restarting incremental Fock matrix formation ***
  7  -1044.17818822  -0.0000120176  0.000245  0.001094  0.001487  0.000041
  8  -1044.17818450   0.0000037242  0.000497  0.000701  0.000485  0.000010
  9  -1044.17819063  -0.0000061341  0.000045  0.000126  0.000228  0.000006
 10  -1044.17819046   0.0000001690  0.000061  0.000081  0.000107  0.000002
 11  -1044.17819073  -0.0000002670  0.000008  0.000031  0.000117  0.000002
 12  -1044.17819073  -0.0000000033  0.000010  0.000023  0.000040  0.000001
                  ***Gradient check signals convergence***
              ***Rediagonalizing the Fockian in SOSCF/NRSCF***

               *****************************************************
               *                     SUCCESS                       *
               *           SCF CONVERGED AFTER  13 CYCLES          *
               *****************************************************


SMD CDS free energy correction energy :                 7.89038     Kcal/mol
Total Energy after SMD CDS correction =             -1044.165616618 Eh
Total Energy       :        -1044.16561662 Eh          -28413.19093 eV
  Last Energy change         ...    4.9445e-09  Tolerance :   1.0000e-08
  Last MAX-Density change    ...    3.5223e-05  Tolerance :   1.0000e-07
             **** THE GBW FILE WAS UPDATED (opt_0.gbw) ****
             **** DENSITY opt_0.scfp WAS UPDATED ****
             **** ENERGY FILE WAS UPDATED (opt_0.en.tmp) ****
             **** THE GBW FILE WAS UPDATED (opt_0.gbw) ****
             **** DENSITY opt_0.scfp WAS UPDATED ****
----------------
ORBITAL ENERGIES
----------------

  NO   OCC          E(Eh)            E(eV) 
   0   2.0000     -24.524341      -667.3413 
   1   2.0000     -24.518892      -667.1930 
   2   2.0000     -24.518764      -667.1895 
   3   2.0000     -19.006899      -517.2040 
   4   2.0000     -18.951627      -515.7000 
   5   2.0000     -14.194126      -386.2418 
   6   2.0000     -10.284474      -279.8548 
   7   2.0000     -10.177762      -276.9510 
   8   2.0000     -10.099116      -274.8109 
   9   2.0000     -10.092059      -274.6189 
  10   2.0000     -10.065746      -273.9029 
  11   2.0000     -10.059865      -273.7428 
  12   2.0000     -10.051081      -273.5038 
  13   2.0000     -10.048041      -273.4211 
  14   2.0000     -10.045188      -273.3435 
  15   2.0000     -10.043961      -273.3101 
  16   2.0000     -10.043403      -273.2949 
  17   2.0000     -10.042102      -273.2595 
  18   2.0000     -10.039717      -273.1946 
  19   2.0000     -10.034592      -273.0551 
  20   2.0000      -1.277718       -34.7685 
  21   2.0000      -1.190038       -32.3826 
  22   2.0000      -1.184282       -32.2260 
  23   2.0000      -1.081385       -29.4260 
  24   2.0000      -0.996431       -27.1143 
  25   2.0000      -0.938287       -25.5321 
  26   2.0000      -0.847127       -23.0515 
  27   2.0000      -0.827425       -22.5154 
  28   2.0000      -0.760746       -20.7009 
  29   2.0000      -0.746262       -20.3068 
  30   2.0000      -0.734255       -19.9801 
  31   2.0000      -0.705765       -19.2048 
  32   2.0000      -0.671870       -18.2825 
  33   2.0000      -0.629839       -17.1388 
  34   2.0000      -0.612272       -16.6608 
  35   2.0000      -0.605130       -16.4664 
  36   2.0000      -0.591257       -16.0889 
  37   2.0000      -0.575432       -15.6583 
  38   2.0000      -0.557058       -15.1583 
  39   2.0000      -0.553534       -15.0624 
  40   2.0000      -0.539599       -14.6832 
  41   2.0000      -0.530470       -14.4348 
  42   2.0000      -0.491962       -13.3870 
  43   2.0000      -0.475849       -12.9485 
  44   2.0000      -0.470561       -12.8046 
  45   2.0000      -0.449755       -12.2384 
  46   2.0000      -0.443200       -12.0601 
  47   2.0000      -0.437699       -11.9104 
  48   2.0000      -0.432557       -11.7705 
  49   2.0000      -0.431030       -11.7289 
  50   2.0000      -0.426278       -11.5996 
  51   2.0000      -0.416450       -11.3322 
  52   2.0000      -0.408688       -11.1210 
  53   2.0000      -0.405043       -11.0218 
  54   2.0000      -0.394300       -10.7294 
  55   2.0000      -0.384916       -10.4741 
  56   2.0000      -0.379375       -10.3233 
  57   2.0000      -0.375732       -10.2242 
  58   2.0000      -0.370426       -10.0798 
  59   2.0000      -0.364641        -9.9224 
  60   2.0000      -0.357285        -9.7222 
  61   2.0000      -0.350264        -9.5312 
  62   2.0000      -0.342702        -9.3254 
  63   2.0000      -0.328843        -8.9483 
  64   2.0000      -0.327169        -8.9027 
  65   2.0000      -0.310620        -8.4524 
  66   2.0000      -0.304596        -8.2885 
  67   2.0000      -0.266215        -7.2441 
  68   2.0000      -0.254621        -6.9286 
  69   2.0000      -0.252125        -6.8607 
  70   2.0000      -0.251380        -6.8404 
  71   2.0000      -0.189691        -5.1618 
  72   0.0000      -0.081050        -2.2055 
  73   0.0000      -0.057173        -1.5558 
  74   0.0000      -0.050469        -1.3733 
  75   0.0000      -0.013360        -0.3635 
  76   0.0000       0.010858         0.2955 
  77   0.0000       0.059905         1.6301 
  78   0.0000       0.080827         2.1994 
  79   0.0000       0.085256         2.3199 
  80   0.0000       0.091814         2.4984 
  81   0.0000       0.093042         2.5318 
  82   0.0000       0.097124         2.6429 
  83   0.0000       0.109152         2.9702 
  84   0.0000       0.119926         3.2634 
  85   0.0000       0.127052         3.4573 
  86   0.0000       0.130635         3.5548 
  87   0.0000       0.137349         3.7375 
  88   0.0000       0.142047         3.8653 
  89   0.0000       0.146406         3.9839 
  90   0.0000       0.150713         4.1011 
  91   0.0000       0.155259         4.2248 
  92   0.0000       0.167592         4.5604 
  93   0.0000       0.176688         4.8079 
  94   0.0000       0.181545         4.9401 
  95   0.0000       0.188138         5.1195 
  96   0.0000       0.191596         5.2136 
  97   0.0000       0.196678         5.3519 
  98   0.0000       0.200896         5.4667 
  99   0.0000       0.208836         5.6827 
 100   0.0000       0.213258         5.8030 
 101   0.0000       0.214532         5.8377 
 102   0.0000       0.218653         5.9498 
 103   0.0000       0.224501         6.1090 
 104   0.0000       0.227027         6.1777 
 105   0.0000       0.230943         6.2843 
 106   0.0000       0.234817         6.3897 
 107   0.0000       0.239506         6.5173 
 108   0.0000       0.244317         6.6482 
 109   0.0000       0.253735         6.9045 
 110   0.0000       0.257729         7.0132 
 111   0.0000       0.262082         7.1316 
 112   0.0000       0.266741         7.2584 
 113   0.0000       0.276782         7.5316 
 114   0.0000       0.279233         7.5983 
 115   0.0000       0.288372         7.8470 
 116   0.0000       0.289996         7.8912 
 117   0.0000       0.292619         7.9626 
 118   0.0000       0.300631         8.1806 
 119   0.0000       0.310091         8.4380 
 120   0.0000       0.313290         8.5250 
 121   0.0000       0.313855         8.5404 
 122   0.0000       0.325451         8.8560 
 123   0.0000       0.326659         8.8889 
 124   0.0000       0.328129         8.9288 
 125   0.0000       0.342939         9.3319 
 126   0.0000       0.350916         9.5489 
 127   0.0000       0.357031         9.7153 
 128   0.0000       0.364290         9.9128 
 129   0.0000       0.376457        10.2439 
 130   0.0000       0.384989        10.4761 
 131   0.0000       0.385835        10.4991 
 132   0.0000       0.392630        10.6840 
 133   0.0000       0.400468        10.8973 
 134   0.0000       0.410435        11.1685 
 135   0.0000       0.421857        11.4793 
 136   0.0000       0.428824        11.6689 
 137   0.0000       0.440874        11.9968 
 138   0.0000       0.445204        12.1146 
 139   0.0000       0.452261        12.3066 
 140   0.0000       0.455830        12.4038 
 141   0.0000       0.466470        12.6933 
 142   0.0000       0.472690        12.8625 
 143   0.0000       0.479094        13.0368 
 144   0.0000       0.488942        13.3048 
 145   0.0000       0.490214        13.3394 
 146   0.0000       0.495190        13.4748 
 147   0.0000       0.511019        13.9055 
 148   0.0000       0.515525        14.0281 
 149   0.0000       0.519734        14.1427 
 150   0.0000       0.527348        14.3499 
 151   0.0000       0.535430        14.5698 
 152   0.0000       0.539920        14.6920 
 153   0.0000       0.551323        15.0023 
 154   0.0000       0.555001        15.1023 
 155   0.0000       0.558887        15.2081 
 156   0.0000       0.563498        15.3336 
 157   0.0000       0.568291        15.4640 
 158   0.0000       0.572363        15.5748 
 159   0.0000       0.583040        15.8653 
 160   0.0000       0.589525        16.0418 
 161   0.0000       0.592938        16.1347 
 162   0.0000       0.602710        16.4006 
 163   0.0000       0.609163        16.5762 
 164   0.0000       0.616158        16.7665 
 165   0.0000       0.623692        16.9715 
 166   0.0000       0.627696        17.0805 
 167   0.0000       0.632375        17.2078 
 168   0.0000       0.638950        17.3867 
 169   0.0000       0.652238        17.7483 
 170   0.0000       0.653647        17.7866 
 171   0.0000       0.664478        18.0814 
 172   0.0000       0.667905        18.1746 
 173   0.0000       0.671979        18.2855 
 174   0.0000       0.678692        18.4681 
 175   0.0000       0.682065        18.5599 
 176   0.0000       0.694846        18.9077 
 177   0.0000       0.702025        19.1031 
 178   0.0000       0.707373        19.2486 
 179   0.0000       0.714951        19.4548 
 180   0.0000       0.722192        19.6518 
 181   0.0000       0.728191        19.8151 
 182   0.0000       0.734048        19.9745 
 183   0.0000       0.741858        20.1870 
 184   0.0000       0.746408        20.3108 
 185   0.0000       0.754772        20.5384 
 186   0.0000       0.761208        20.7135 
 187   0.0000       0.769231        20.9318 
 188   0.0000       0.777394        21.1540 
 189   0.0000       0.783142        21.3104 
 190   0.0000       0.789208        21.4754 
 191   0.0000       0.795907        21.6577 
 192   0.0000       0.808424        21.9983 
 193   0.0000       0.814848        22.1731 
 194   0.0000       0.843788        22.9606 
 195   0.0000       0.867100        23.5950 
 196   0.0000       0.873155        23.7598 
 197   0.0000       0.901670        24.5357 
 198   0.0000       0.905871        24.6500 
 199   0.0000       0.917401        24.9637 
 200   0.0000       0.923139        25.1199 
 201   0.0000       0.931743        25.3540 
 202   0.0000       0.949010        25.8239 
 203   0.0000       0.953505        25.9462 
 204   0.0000       0.961794        26.1718 
 205   0.0000       0.981783        26.7157 
 206   0.0000       0.992406        27.0047 
 207   0.0000       0.995306        27.0837 
 208   0.0000       1.022406        27.8211 
 209   0.0000       1.032133        28.0858 
 210   0.0000       1.059653        28.8346 
 211   0.0000       1.093590        29.7581 
 212   0.0000       1.098954        29.9041 
 213   0.0000       1.104560        30.0566 
 214   0.0000       1.131043        30.7772 
 215   0.0000       1.157303        31.4918 
 216   0.0000       1.171988        31.8914 
 217   0.0000       1.186951        32.2986 
 218   0.0000       1.192993        32.4630 
 219   0.0000       1.203344        32.7447 
 220   0.0000       1.211875        32.9768 
 221   0.0000       1.228729        33.4354 
 222   0.0000       1.233484        33.5648 
 223   0.0000       1.256477        34.1905 
 224   0.0000       1.274517        34.6814 
 225   0.0000       1.298959        35.3465 
 226   0.0000       1.307921        35.5903 
 227   0.0000       1.310282        35.6546 
 228   0.0000       1.321776        35.9673 
 229   0.0000       1.324258        36.0349 
 230   0.0000       1.331253        36.2252 
 231   0.0000       1.342655        36.5355 
 232   0.0000       1.352527        36.8041 
 233   0.0000       1.354661        36.8622 
 234   0.0000       1.370445        37.2917 
 235   0.0000       1.382918        37.6311 
 236   0.0000       1.388238        37.7759 
 237   0.0000       1.394855        37.9559 
 238   0.0000       1.401252        38.1300 
 239   0.0000       1.404455        38.2172 
 240   0.0000       1.412716        38.4420 
 241   0.0000       1.420906        38.6648 
 242   0.0000       1.422266        38.7018 
 243   0.0000       1.426054        38.8049 
 244   0.0000       1.441350        39.2211 
 245   0.0000       1.446920        39.3727 
 246   0.0000       1.450900        39.4810 
 247   0.0000       1.462420        39.7945 
 248   0.0000       1.470839        40.0236 
 249   0.0000       1.471356        40.0376 
 250   0.0000       1.481983        40.3268 
 251   0.0000       1.491198        40.5776 
 252   0.0000       1.500419        40.8285 
 253   0.0000       1.503732        40.9186 
 254   0.0000       1.506759        41.0010 
 255   0.0000       1.512313        41.1521 
 256   0.0000       1.518987        41.3337 
 257   0.0000       1.532530        41.7023 
 258   0.0000       1.534742        41.7625 
 259   0.0000       1.539063        41.8800 
 260   0.0000       1.543637        42.0045 
 261   0.0000       1.557105        42.3710 
 262   0.0000       1.559003        42.4226 
 263   0.0000       1.568378        42.6777 
 264   0.0000       1.572250        42.7831 
 265   0.0000       1.585225        43.1362 
 266   0.0000       1.594375        43.3851 
 267   0.0000       1.601626        43.5825 
 268   0.0000       1.612650        43.8824 
 269   0.0000       1.626953        44.2716 
 270   0.0000       1.636538        44.5325 
 271   0.0000       1.641733        44.6738 
 272   0.0000       1.656698        45.0810 
 273   0.0000       1.667823        45.3838 
 274   0.0000       1.683023        45.7974 
 275   0.0000       1.686629        45.8955 
 276   0.0000       1.709904        46.5288 
 277   0.0000       1.727786        47.0155 
 278   0.0000       1.731517        47.1170 
 279   0.0000       1.746797        47.5328 
 280   0.0000       1.758152        47.8417 
 281   0.0000       1.768717        48.1292 
 282   0.0000       1.789523        48.6954 
 283   0.0000       1.807682        49.1895 
 284   0.0000       1.808939        49.2237 
 285   0.0000       1.841174        50.1009 
 286   0.0000       1.861867        50.6640 
 287   0.0000       1.879532        51.1447 
 288   0.0000       1.920595        52.2620 
 289   0.0000       1.950754        53.0827 
 290   0.0000       1.983162        53.9646 
 291   0.0000       1.991033        54.1788 
 292   0.0000       1.999126        54.3990 
 293   0.0000       2.013390        54.7871 
 294   0.0000       2.035796        55.3968 
 295   0.0000       2.037469        55.4423 
 296   0.0000       2.045345        55.6567 
 297   0.0000       2.053914        55.8898 
 298   0.0000       2.066533        56.2332 
 299   0.0000       2.070813        56.3497 
 300   0.0000       2.077104        56.5209 
 301   0.0000       2.082061        56.6558 
 302   0.0000       2.096694        57.0539 
 303   0.0000       2.103621        57.2424 
 304   0.0000       2.110405        57.4270 
 305   0.0000       2.123588        57.7858 
 306   0.0000       2.142074        58.2888 
 307   0.0000       2.144308        58.3496 
 308   0.0000       2.159358        58.7591 
 309   0.0000       2.175033        59.1857 
 310   0.0000       2.191742        59.6403 
 311   0.0000       2.208428        60.0944 
 312   0.0000       2.215735        60.2932 
 313   0.0000       2.241181        60.9856 
 314   0.0000       2.243734        61.0551 
 315   0.0000       2.252328        61.2890 
 316   0.0000       2.265135        61.6374 
 317   0.0000       2.269193        61.7479 
 318   0.0000       2.275170        61.9105 
 319   0.0000       2.278354        61.9972 
 320   0.0000       2.290574        62.3297 
 321   0.0000       2.296623        62.4943 
 322   0.0000       2.303132        62.6714 
 323   0.0000       2.320822        63.1528 
 324   0.0000       2.328203        63.3536 
 325   0.0000       2.331584        63.4456 
 326   0.0000       2.339569        63.6629 
 327   0.0000       2.352684        64.0198 
 328   0.0000       2.362044        64.2745 
 329   0.0000       2.367257        64.4163 
 330   0.0000       2.368518        64.4507 
 331   0.0000       2.381971        64.8167 
 332   0.0000       2.382795        64.8391 
 333   0.0000       2.390731        65.0551 
 334   0.0000       2.401422        65.3460 
 335   0.0000       2.408146        65.5290 
 336   0.0000       2.424856        65.9837 
 337   0.0000       2.431880        66.1748 
 338   0.0000       2.440777        66.4169 
 339   0.0000       2.454974        66.8032 
 340   0.0000       2.474028        67.3217 
 341   0.0000       2.487004        67.6748 
 342   0.0000       2.507005        68.2191 
 343   0.0000       2.518870        68.5419 
 344   0.0000       2.524945        68.7072 
 345   0.0000       2.550620        69.4059 
 346   0.0000       2.569556        69.9212 
 347   0.0000       2.596323        70.6495 
 348   0.0000       2.620717        71.3133 
 349   0.0000       2.653205        72.1974 
 350   0.0000       2.655126        72.2497 
 351   0.0000       2.676459        72.8302 
 352   0.0000       2.681854        72.9770 
 353   0.0000       2.687602        73.1334 
 354   0.0000       2.694907        73.3322 
 355   0.0000       2.709270        73.7230 
 356   0.0000       2.713886        73.8486 
 357   0.0000       2.739299        74.5401 
 358   0.0000       2.743045        74.6420 
 359   0.0000       2.771142        75.4066 
 360   0.0000       2.783174        75.7340 
 361   0.0000       2.798508        76.1513 
 362   0.0000       2.810347        76.4734 
 363   0.0000       2.819969        76.7353 
 364   0.0000       2.832905        77.0873 
 365   0.0000       2.864223        77.9395 
 366   0.0000       2.887063        78.5610 
 367   0.0000       2.902977        78.9940 
 368   0.0000       2.930280        79.7370 
 369   0.0000       2.943167        80.0876 
 370   0.0000       2.962807        80.6221 
 371   0.0000       2.968450        80.7756 
 372   0.0000       2.981832        81.1398 
 373   0.0000       2.993205        81.4492 
 374   0.0000       3.014301        82.0233 
 375   0.0000       3.028403        82.4070 
 376   0.0000       3.088265        84.0359 
 377   0.0000       3.098261        84.3080 
 378   0.0000       3.101772        84.4035 
 379   0.0000       3.109735        84.6202 
 380   0.0000       3.137702        85.3812 
 381   0.0000       3.151717        85.7626 
 382   0.0000       3.160304        85.9962 
 383   0.0000       3.180410        86.5434 
 384   0.0000       3.208432        87.3059 
 385   0.0000       3.217379        87.5493 
 386   0.0000       3.223149        87.7063 
 387   0.0000       3.227486        87.8244 
 388   0.0000       3.250602        88.4534 
 389   0.0000       3.258918        88.6797 
 390   0.0000       3.269713        88.9734 
 391   0.0000       3.281450        89.2928 
 392   0.0000       3.290197        89.5308 
 393   0.0000       3.292869        89.6035 
 394   0.0000       3.300264        89.8047 
 395   0.0000       3.303164        89.8836 
 396   0.0000       3.312984        90.1509 
 397   0.0000       3.322222        90.4022 
 398   0.0000       3.329349        90.5962 
 399   0.0000       3.334902        90.7473 
 400   0.0000       3.346895        91.0737 
 401   0.0000       3.351374        91.1955 
 402   0.0000       3.354689        91.2857 
 403   0.0000       3.370005        91.7025 
 404   0.0000       3.402939        92.5987 
 405   0.0000       3.407208        92.7148 
 406   0.0000       3.415016        92.9273 
 407   0.0000       3.424509        93.1856 
 408   0.0000       3.441021        93.6349 
 409   0.0000       3.444568        93.7314 
 410   0.0000       3.462123        94.2092 
 411   0.0000       3.468912        94.3939 
 412   0.0000       3.472713        94.4973 
 413   0.0000       3.483857        94.8006 
 414   0.0000       3.499722        95.2323 
 415   0.0000       3.514545        95.6356 
 416   0.0000       3.551307        96.6360 
 417   0.0000       3.599149        97.9378 
 418   0.0000       3.607222        98.1575 
 419   0.0000       3.613446        98.3269 
 420   0.0000       3.632343        98.8411 
 421   0.0000       3.655409        99.4687 
 422   0.0000       3.699556       100.6700 
 423   0.0000       3.717973       101.1712 
 424   0.0000       3.740715       101.7900 
 425   0.0000       3.760273       102.3222 
 426   0.0000       3.817159       103.8702 
 427   0.0000       3.882149       105.6386 
 428   0.0000       4.006333       109.0179 
 429   0.0000       4.069993       110.7502 
 430   0.0000       4.106076       111.7320 
 431   0.0000       4.130803       112.4049 
 432   0.0000       4.169073       113.4463 
 433   0.0000       4.173872       113.5768 
 434   0.0000       4.273786       116.2956 
 435   0.0000       4.380035       119.1868 
 436   0.0000       4.509053       122.6976 
 437   0.0000       4.576174       124.5240 
 438   0.0000       4.699249       127.8731 
 439   0.0000       4.812626       130.9582 
 440   0.0000      21.462707       584.0300 
 441   0.0000      21.478385       584.4566 
 442   0.0000      21.896565       595.8358 
 443   0.0000      21.943239       597.1059 
 444   0.0000      22.037518       599.6713 
 445   0.0000      22.059135       600.2596 
 446   0.0000      22.104754       601.5009 
 447   0.0000      22.166581       603.1833 
 448   0.0000      22.211550       604.4070 
 449   0.0000      22.212651       604.4370 
 450   0.0000      22.247802       605.3935 
 451   0.0000      22.276721       606.1804 
 452   0.0000      22.350058       608.1760 
 453   0.0000      22.374051       608.8289 
 454   0.0000      32.072558       872.7387 
 455   0.0000      43.617817      1186.9012 
 456   0.0000      43.741159      1190.2574 
 457   0.0000      57.192238      1556.2799 
 458   0.0000      57.221095      1557.0651 
 459   0.0000      57.333836      1560.1330 
Total SCF time: 0 days 0 hours 0 min 34 sec 

Maximum memory used throughout the entire SCF-calculation: 85.5 MB


-------------------------------------------------------------------------------
                          DFT DISPERSION CORRECTION                            
                                                                               
                                 DFTD4 V2.5                                    
-------------------------------------------------------------------------------
Starting D4
-------------------------   ----------------
Dispersion correction           -0.013494890
-------------------------   ----------------

------------------   -----------------
gCP correction             0.018051847
------------------   -----------------

-------------------------   --------------------
FINAL SINGLE POINT ENERGY     -1044.161059660890
-------------------------   --------------------



           ************************************************************
           *        Program running with 48 parallel MPI-processes    *
           *              working on a common directory               *
           ************************************************************
------------------------------------------------------------------------------
                         ORCA SCF GRADIENT CALCULATION
------------------------------------------------------------------------------

Gradient of the Kohn-Sham DFT energy:
Kohn-Sham wavefunction type      ... RKS
Hartree-Fock exchange scaling    ...    0.000
Number of operators              ...    1
Number of atoms                  ...   30
Basis set dimensions             ...  460
Integral neglect threshold       ... 2.5e-11
Integral primitive cutoff        ... 2.5e-12
SHARK Integral package           ... ON

Nuc. rep. gradient       (SHARK) ... done (  0.0 sec)
HCore & Overlap gradient (SHARK) ... done (  0.1 sec)
RI-J gradient            (SHARK) ... done (  0.2 sec)
Exchange-correlation gradient    ... done
Dispersion correction            ... Starting D4
Starting D4
Starting D4
Starting D4
Starting D4
Starting D4
Starting D4
Starting D4
Starting D4
Starting D4
Starting D4
Starting D4
Starting D4
Starting D4
Starting D4
Starting D4
Starting D4
Starting D4
Starting D4
Starting D4
Starting D4
Starting D4
Starting D4
Starting D4
Starting D4
Starting D4
Starting D4
Starting D4
Starting D4
Starting D4
Starting D4
Starting D4
Starting D4
Starting D4


------------------- 
Dispersion Gradient 
------------------- 
   1  :    0.000054824    0.000126101    0.000024948
   2  :    0.000027239    0.000145452    0.000059072
   3  :    0.000022557    0.000117146    0.000073186
   4  :    0.000058418    0.000022388    0.000024444
   5  :    0.000105723    0.000001858   -0.000020587
   6  :    0.000098064    0.000068268   -0.000013206
   7  :    0.000115584   -0.000076505   -0.000058327
   8  :    0.000080556   -0.000106602   -0.000027735
   9  :    0.000084277   -0.000021443   -0.000068224
  10  :    0.000033278   -0.000085754    0.000021154
  11  :   -0.000037646   -0.000085590    0.000022277
  12  :   -0.000038544   -0.000137398    0.000042956
  13  :   -0.000058083   -0.000121510    0.000038871
  14  :   -0.000091311   -0.000071770    0.000016504
  15  :   -0.000109901   -0.000006625   -0.000021741
  16  :   -0.000065892   -0.000005535   -0.000022029
  17  :   -0.000082281    0.000047213   -0.000035074
  18  :   -0.000060284    0.000078128   -0.000000697
  19  :   -0.000042474    0.000047596   -0.000068506
  20  :   -0.000072734    0.000024264   -0.000011802
  21  :    0.000019848    0.000044040    0.000005261
  22  :   -0.000002511    0.000051226    0.000023200
  23  :    0.000001244    0.000046618    0.000045380
  24  :    0.000044697    0.000018844   -0.000010804
  25  :    0.000033162   -0.000027668   -0.000032275
  26  :    0.000019444   -0.000039042    0.000001642
  27  :   -0.000002083   -0.000058970    0.000022774
  28  :   -0.000017926   -0.000044584    0.000015747
  29  :   -0.000043097   -0.000019907    0.000005509
  30  :   -0.000031500    0.000030359   -0.000031489

  |G| =    0.004199008

Starting D4
Starting D4
Starting D4
Starting D4
Starting D4
Starting D4
Starting D4
Starting D4
Starting D4
Starting D4
Starting D4
Starting D4
Starting D4
Starting D4
done
gCP correction                   ... done

------------------
CARTESIAN GRADIENT
------------------

   1   C   :   -0.001921309   -0.003164074    0.000384376
   2   C   :   -0.000009185    0.001289304    0.001029863
   3   C   :    0.002329462    0.000845730   -0.000390174
   4   C   :   -0.000748027   -0.001560397   -0.001204552
   5   C   :   -0.003186517    0.001556536    0.001354837
   6   C   :   -0.000364285    0.000532196   -0.000704431
   7   C   :    0.007908104   -0.010700837   -0.005984816
   8   O   :   -0.000367745    0.009880678    0.000063493
   9   O   :   -0.012922878    0.000683179    0.010266615
  10   N   :   -0.006549435    0.007978134    0.000479262
  11   C   :    0.009313785   -0.001851498    0.000207560
  12   C   :   -0.002280681   -0.000282801   -0.000838491
  13   C   :    0.001480291   -0.000488243    0.001519437
  14   C   :    0.002305164   -0.002473747    0.000887852
  15   C   :    0.001734636   -0.000826625    0.000197954
  16   C   :    0.000050481   -0.001172897    0.000732201
  17   C   :    0.002782367   -0.005424559    0.002029256
  18   F   :   -0.004770255   -0.005030488   -0.007252526
  19   F   :   -0.005010619    0.002064522    0.008663192
  20   F   :    0.006917952    0.007597664   -0.003090455
  21   H   :   -0.003177270   -0.003880135   -0.000274591
  22   H   :    0.002269768   -0.003981999   -0.002538379
  23   H   :    0.003994246   -0.000761986   -0.001662836
  24   H   :   -0.003566634   -0.000772617    0.001341623
  25   H   :    0.003015492    0.003125882   -0.001598993
  26   H   :    0.000920516   -0.000955244   -0.000048525
  27   H   :   -0.003970538    0.004326282   -0.002286859
  28   H   :    0.001142123    0.004996666   -0.001786349
  29   H   :    0.004551831    0.001680460   -0.000575804
  30   H   :   -0.001828193   -0.003268487    0.001100688

Difference to translation invariance:
           :    0.0000426472   -0.0000394011    0.0000204303

Difference to rotation invariance:
           :   -0.0005969148   -0.0005228507    0.0003980581

Norm of the cartesian gradient     ...    0.0378389267
RMS gradient                       ...    0.0039885731
MAX gradient                       ...    0.0129228779

-------
TIMINGS
-------

Total SCF gradient time            ...        3.434 sec

One electron gradient       ....       0.053 sec  (  1.6%)
RI-J Coulomb gradient       ....       0.233 sec  (  6.8%)
XC gradient                 ....       1.656 sec  ( 48.2%)
CPCM gradient               ....       0.253 sec  (  7.4%)
   A-Matrix (El+Nuc)        ....       0.108 sec  (  3.2%)
   Potential                ....       0.145 sec  (  4.2%)

Maximum memory used throughout the entire SCFGRAD-calculation: 50.3 MB
------------------------------------------------------------------------------
                         ORCA GEOMETRY RELAXATION STEP
------------------------------------------------------------------------------

Reading the OPT-File                    .... done
Getting information on internals        .... done
Copying old internal coords+grads       .... done
Making the new internal coordinates     .... (new redundants).... done
Validating the new internal coordinates .... (new redundants).... done
Calculating the B-matrix                .... done
Calculating the G,G- and P matrices     .... done
Transforming gradient to internals      .... done
Projecting the internal gradient        .... done
Number of atoms                         ....  30
Number of internal coordinates          .... 148
Current Energy                          .... -1044.161059661 Eh
Current gradient norm                   ....     0.037838927 Eh/bohr
Maximum allowed component of the step   ....  0.300
Current trust radius                    ....  0.300
Evaluating the initial hessian          ....  (Almloef) done
Projecting the Hessian                  .... done
Forming the augmented Hessian           .... done
Diagonalizing the augmented Hessian     .... done
Last element of RFO vector              ....  0.991660806
Lowest eigenvalues of augmented Hessian:
 -0.003576769  0.013287611  0.014649797  0.020988853  0.021025803
Length of the computed step             ....  0.129959065
The final length of the internal step   ....  0.129959065
Converting the step to cartesian space:
 Initial RMS(Int)=    0.0106825694
Transforming coordinates:
 Iter   0:  RMS(Cart)=    0.0436978379 RMS(Int)=    0.7296835785
 Iter   1:  RMS(Cart)=    0.0006934338 RMS(Int)=    0.0003187157
 Iter   2:  RMS(Cart)=    0.0000284868 RMS(Int)=    0.0000100992
 Iter   3:  RMS(Cart)=    0.0000012982 RMS(Int)=    0.0000007294
 Iter   4:  RMS(Cart)=    0.0000000631 RMS(Int)=    0.0000000277
done
Storing new coordinates                 .... done

                                .--------------------.
          ----------------------|Geometry convergence|-------------------------
          Item                value                   Tolerance       Converged
          ---------------------------------------------------------------------
          RMS gradient        0.0034525740            0.0001000000      NO
          MAX gradient        0.0126418762            0.0003000000      NO
          RMS step            0.0106825694            0.0020000000      NO
          MAX step            0.0427858125            0.0040000000      NO
          ........................................................
          Max(Bonds)      0.0110      Max(Angles)    1.13
          Max(Dihed)        2.45      Max(Improp)    0.00
          ---------------------------------------------------------------------

The optimization has not yet converged - more geometry cycles are needed


    ---------------------------------------------------------------------------
                         Redundant Internal Coordinates
                            (Angstroem and degrees)

        Definition                    Value    dE/dq     Step     New-Value
    ----------------------------------------------------------------------------
     1. B(C   1,C   0)                1.3904 -0.005991  0.0051    1.3954   
     2. B(C   2,C   1)                1.3764 -0.005686  0.0046    1.3810   
     3. B(C   3,C   2)                1.4014 -0.005552  0.0049    1.4063   
     4. B(C   4,C   3)                1.4167 -0.009417  0.0087    1.4255   
     5. B(C   5,C   4)                1.3993 -0.006403  0.0056    1.4049   
     6. B(C   5,C   0)                1.3767 -0.005188  0.0042    1.3809   
     7. B(C   6,C   4)                1.4720 -0.004506  0.0051    1.4771   
     8. B(O   7,C   6)                1.2230 -0.009058  0.0046    1.2276   
     9. B(O   8,C   6)                1.3332 -0.012642  0.0097    1.3428   
    10. B(N   9,C   3)                1.3700 -0.009426  0.0082    1.3783   
    11. B(C  10,N   9)                1.3772 -0.012278  0.0110    1.3882   
    12. B(C  11,C  10)                1.4013 -0.004587  0.0040    1.4053   
    13. B(C  12,C  11)                1.3785 -0.006307  0.0051    1.3836   
    14. B(C  13,C  12)                1.3879 -0.005683  0.0048    1.3927   
    15. B(C  14,C  13)                1.3872 -0.004354  0.0036    1.3908   
    16. B(C  15,C  14)                1.3878 -0.005012  0.0041    1.3919   
    17. B(C  15,C  10)                1.3954 -0.004265  0.0036    1.3991   
    18. B(C  16,C  14)                1.4955 -0.000625  0.0008    1.4963   
    19. B(F  17,C  16)                1.3541 -0.008524  0.0076    1.3616   
    20. B(F  18,C  16)                1.3545 -0.008590  0.0076    1.3622   
    21. B(F  19,C  16)                1.3429 -0.008615  0.0073    1.3502   
    22. B(H  20,C   0)                1.0780 -0.004990  0.0070    1.0850   
    23. B(H  21,C   1)                1.0787 -0.005214  0.0073    1.0860   
    24. B(H  22,C   2)                1.0780 -0.004304  0.0060    1.0840   
    25. B(H  23,C   5)                1.0809 -0.003819  0.0054    1.0863   
    26. B(H  24,O   8)                0.9734  0.003915 -0.0042    0.9693   
    27. B(H  25,N   9)                1.0168  0.001303 -0.0016    1.0151   
    28. B(H  26,C  11)                1.0783 -0.006283  0.0088    1.0870   
    29. B(H  27,C  12)                1.0780 -0.005374  0.0075    1.0855   
    30. B(H  28,C  13)                1.0774 -0.004772  0.0066    1.0840   
    31. B(H  29,C  15)                1.0793 -0.003848  0.0054    1.0847   
    32. A(C   5,C   0,H  20)          120.27 -0.000245    0.02    120.30   
    33. A(C   1,C   0,H  20)          120.31 -0.001272    0.19    120.50   
    34. A(C   1,C   0,C   5)          119.40  0.001517   -0.21    119.19   
    35. A(C   0,C   1,C   2)          120.46 -0.001535    0.21    120.66   
    36. A(C   2,C   1,H  21)          119.49  0.001169   -0.17    119.32   
    37. A(C   0,C   1,H  21)          120.04  0.000368   -0.04    120.00   
    38. A(C   1,C   2,C   3)          121.19 -0.000208    0.03    121.22   
    39. A(C   1,C   2,H  22)          119.76  0.000919   -0.14    119.62   
    40. A(C   3,C   2,H  22)          118.98 -0.000714    0.12    119.10   
    41. A(C   2,C   3,C   4)          118.41  0.001026   -0.13    118.28   
    42. A(C   4,C   3,N   9)          120.15 -0.003382    0.47    120.62   
    43. A(C   2,C   3,N   9)          121.38  0.002341   -0.30    121.08   
    44. A(C   3,C   4,C   5)          119.10  0.000581   -0.08    119.02   
    45. A(C   5,C   4,C   6)          120.02  0.001272   -0.17    119.84   
    46. A(C   3,C   4,C   6)          120.87 -0.001857    0.26    121.13   
    47. A(C   0,C   5,C   4)          121.44 -0.001384    0.19    121.63   
    48. A(C   4,C   5,H  23)          119.91  0.000059    0.01    119.92   
    49. A(C   0,C   5,H  23)          118.58  0.001314   -0.19    118.40   
    50. A(C   4,C   6,O   8)          118.13 -0.003120    0.40    118.52   
    51. A(O   7,C   6,O   8)          118.22  0.006122   -0.75    117.47   
    52. A(C   4,C   6,O   7)          123.65 -0.003003    0.35    124.01   
    53. A(C   6,O   8,H  24)          113.97  0.004173   -0.63    113.34   
    54. A(C   3,N   9,C  10)          128.80 -0.000197    0.03    128.84   
    55. A(C  10,N   9,H  25)          116.41  0.000345   -0.05    116.37   
    56. A(C   3,N   9,H  25)          114.56 -0.000162    0.04    114.60   
    57. A(N   9,C  10,C  11)          118.40  0.002514   -0.34    118.06   
    58. A(C  11,C  10,C  15)          118.47 -0.000810    0.10    118.58   
    59. A(N   9,C  10,C  15)          123.06 -0.001693    0.22    123.28   
    60. A(C  12,C  11,H  26)          120.15 -0.000404    0.05    120.20   
    61. A(C  10,C  11,H  26)          118.88 -0.000434    0.05    118.94   
    62. A(C  10,C  11,C  12)          120.97  0.000837   -0.10    120.87   
    63. A(C  13,C  12,H  27)          119.42 -0.000582    0.09    119.51   
    64. A(C  11,C  12,H  27)          119.86  0.000998   -0.16    119.69   
    65. A(C  11,C  12,C  13)          120.72 -0.000416    0.07    120.80   
    66. A(C  14,C  13,H  28)          120.49 -0.001515    0.23    120.72   
    67. A(C  12,C  13,H  28)          121.14  0.000598   -0.11    121.03   
    68. A(C  12,C  13,C  14)          118.37  0.000916   -0.12    118.25   
    69. A(C  15,C  14,C  16)          117.31  0.000032   -0.00    117.31   
    70. A(C  13,C  14,C  16)          120.97  0.000946   -0.13    120.84   
    71. A(C  13,C  14,C  15)          121.72 -0.000976    0.13    121.85   
    72. A(C  14,C  15,H  29)          119.40 -0.000831    0.13    119.52   
    73. A(C  10,C  15,H  29)          120.88  0.000396   -0.07    120.82   
    74. A(C  10,C  15,C  14)          119.69  0.000439   -0.07    119.62   
    75. A(F  18,C  16,F  19)          105.71 -0.007456    0.96    106.66   
    76. A(F  17,C  16,F  19)          105.74 -0.007423    1.01    106.74   
    77. A(C  14,C  16,F  19)          114.26  0.007792   -1.13    113.13   
    78. A(F  17,C  16,F  18)          104.88 -0.006920    1.05    105.94   
    79. A(C  14,C  16,F  18)          112.81  0.006096   -0.84    111.97   
    80. A(C  14,C  16,F  17)          112.66  0.005399   -0.70    111.96   
    81. D(C   2,C   1,C   0,H  20)   -178.94 -0.000085    0.15   -178.80   
    82. D(H  21,C   1,C   0,H  20)     -0.36  0.000018   -0.04     -0.41   
    83. D(C   2,C   1,C   0,C   5)     -0.22 -0.000059    0.12     -0.10   
    84. D(H  21,C   1,C   0,C   5)    178.36  0.000045   -0.07    178.29   
    85. D(H  22,C   2,C   1,C   0)    176.33 -0.000200    0.29    176.61   
    86. D(H  22,C   2,C   1,H  21)     -2.26 -0.000292    0.47     -1.79   
    87. D(C   3,C   2,C   1,C   0)     -0.70 -0.000126    0.21     -0.49   
    88. D(C   3,C   2,C   1,H  21)   -179.29 -0.000218    0.40   -178.89   
    89. D(N   9,C   3,C   2,H  22)      0.98 -0.000154    0.16      1.14   
    90. D(N   9,C   3,C   2,C   1)    178.03 -0.000179    0.23    178.26   
    91. D(C   4,C   3,C   2,H  22)   -176.17  0.000305   -0.56   -176.72   
    92. D(C   4,C   3,C   2,C   1)      0.88  0.000279   -0.49      0.39   
    93. D(C   6,C   4,C   3,C   2)    178.21 -0.000378    0.87    179.08   
    94. D(C   5,C   4,C   3,N   9)   -177.35  0.000061   -0.25   -177.60   
    95. D(C   5,C   4,C   3,C   2)     -0.17 -0.000225    0.44      0.27   
    96. D(C   6,C   4,C   3,N   9)      1.02 -0.000093    0.18      1.20   
    97. D(H  23,C   5,C   4,C   6)     -2.28  0.000067   -0.16     -2.45   
    98. D(C   0,C   5,C   4,C   6)   -179.13  0.000261   -0.56   -179.69   
    99. D(C   0,C   5,C   4,C   3)     -0.74  0.000057   -0.13     -0.88   
   100. D(H  23,C   5,C   0,H  20)      2.78  0.000333   -0.58      2.20   
   101. D(H  23,C   5,C   0,C   1)   -175.95  0.000320   -0.55   -176.50   
   102. D(H  23,C   5,C   4,C   3)    176.11 -0.000136    0.27    176.37   
   103. D(C   4,C   5,C   0,H  20)    179.67  0.000105   -0.18    179.49   
   104. D(C   4,C   5,C   0,C   1)      0.94  0.000092   -0.15      0.79   
   105. D(O   8,C   6,C   4,C   5)    -24.96  0.000468   -1.60    -26.56   
   106. D(O   8,C   6,C   4,C   3)    156.67  0.000634   -2.03    154.65   
   107. D(O   7,C   6,C   4,C   5)    155.17  0.000647   -2.02    153.14   
   108. D(O   7,C   6,C   4,C   3)    -23.20  0.000813   -2.45    -25.65   
   109. D(H  24,O   8,C   6,O   7)    173.74  0.000740   -1.01    172.73   
   110. D(H  24,O   8,C   6,C   4)     -6.13  0.000920   -1.42     -7.55   
   111. D(C  10,N   9,C   3,C   2)     26.80  0.000033   -0.13     26.67   
   112. D(H  25,N   9,C   3,C   4)     18.27 -0.000470    0.89     19.17   
   113. D(H  25,N   9,C   3,C   2)   -158.82 -0.000131    0.18   -158.65   
   114. D(C  10,N   9,C   3,C   4)   -156.10 -0.000306    0.59   -155.51   
   115. D(C  15,C  10,N   9,H  25)   -151.15 -0.000476    0.92   -150.23   
   116. D(C  15,C  10,N   9,C   3)     23.14 -0.000667    1.24     24.38   
   117. D(C  11,C  10,N   9,H  25)     25.86 -0.000244    0.43     26.29   
   118. D(C  11,C  10,N   9,C   3)   -159.86 -0.000435    0.75   -159.11   
   119. D(H  26,C  11,C  10,C  15)    177.85 -0.000251    0.49    178.34   
   120. D(H  26,C  11,C  10,N   9)      0.71 -0.000439    0.95      1.66   
   121. D(C  12,C  11,C  10,C  15)     -2.37 -0.000371    0.73     -1.65   
   122. D(C  12,C  11,C  10,N   9)   -179.52 -0.000559    1.19   -178.33   
   123. D(H  27,C  12,C  11,H  26)      0.35  0.000004    0.01      0.36   
   124. D(H  27,C  12,C  11,C  10)   -179.43  0.000125   -0.23   -179.66   
[...]
  92   0.0000       0.164957         4.4887 
  93   0.0000       0.172763         4.7011 
  94   0.0000       0.179664         4.8889 
  95   0.0000       0.184667         5.0251 
  96   0.0000       0.189299         5.1511 
  97   0.0000       0.193956         5.2778 
  98   0.0000       0.195246         5.3129 
  99   0.0000       0.206107         5.6085 
 100   0.0000       0.207177         5.6376 
 101   0.0000       0.210426         5.7260 
 102   0.0000       0.218501         5.9457 
 103   0.0000       0.222437         6.0528 
 104   0.0000       0.224566         6.1108 
 105   0.0000       0.227407         6.1881 
 106   0.0000       0.232115         6.3162 
 107   0.0000       0.234149         6.3715 
 108   0.0000       0.242618         6.6020 
 109   0.0000       0.251678         6.8485 
 110   0.0000       0.255683         6.9575 
 111   0.0000       0.261624         7.1192 
 112   0.0000       0.263905         7.1812 
 113   0.0000       0.274133         7.4595 
 114   0.0000       0.277974         7.5641 
 115   0.0000       0.285510         7.7691 
 116   0.0000       0.287545         7.8245 
 117   0.0000       0.290386         7.9018 
 118   0.0000       0.298469         8.1217 
 119   0.0000       0.307390         8.3645 
 120   0.0000       0.310015         8.4359 
 121   0.0000       0.313187         8.5223 
 122   0.0000       0.323061         8.7909 
 123   0.0000       0.324470         8.8293 
 124   0.0000       0.326452         8.8832 
 125   0.0000       0.340690         9.2706 
 126   0.0000       0.347986         9.4692 
 127   0.0000       0.353004         9.6057 
 128   0.0000       0.361345         9.8327 
 129   0.0000       0.373417        10.1612 
 130   0.0000       0.378724        10.3056 
 131   0.0000       0.384093        10.4517 
 132   0.0000       0.388621        10.5749 
 133   0.0000       0.396063        10.7774 
 134   0.0000       0.407591        11.0911 
 135   0.0000       0.418495        11.3878 
 136   0.0000       0.424590        11.5537 
 137   0.0000       0.438955        11.9446 
 138   0.0000       0.441832        12.0229 
 139   0.0000       0.450339        12.2544 
 140   0.0000       0.453615        12.3435 
 141   0.0000       0.464842        12.6490 
 142   0.0000       0.471902        12.8411 
 143   0.0000       0.477820        13.0022 
 144   0.0000       0.487319        13.2606 
 145   0.0000       0.487754        13.2725 
 146   0.0000       0.494093        13.4450 
 147   0.0000       0.508373        13.8335 
 148   0.0000       0.510906        13.9025 
 149   0.0000       0.514387        13.9972 
 150   0.0000       0.523785        14.2529 
 151   0.0000       0.533406        14.5147 
 152   0.0000       0.535139        14.5619 
 153   0.0000       0.548072        14.9138 
 154   0.0000       0.552894        15.0450 
 155   0.0000       0.558082        15.1862 
 156   0.0000       0.560573        15.2540 
 157   0.0000       0.564103        15.3500 
 158   0.0000       0.571039        15.5388 
 159   0.0000       0.583226        15.8704 
 160   0.0000       0.586426        15.9575 
 161   0.0000       0.589708        16.0468 
 162   0.0000       0.596938        16.2435 
 163   0.0000       0.605534        16.4774 
 164   0.0000       0.615372        16.7451 
 165   0.0000       0.620268        16.8784 
 166   0.0000       0.624540        16.9946 
 167   0.0000       0.629530        17.1304 
 168   0.0000       0.636677        17.3249 
 169   0.0000       0.649605        17.6766 
 170   0.0000       0.651846        17.7376 
 171   0.0000       0.660917        17.9845 
 172   0.0000       0.662890        18.0382 
 173   0.0000       0.667074        18.1520 
 174   0.0000       0.673483        18.3264 
 175   0.0000       0.675364        18.3776 
 176   0.0000       0.692138        18.8340 
 177   0.0000       0.699295        19.0288 
 178   0.0000       0.705181        19.1890 
 179   0.0000       0.712088        19.3769 
 180   0.0000       0.717716        19.5300 
 181   0.0000       0.723586        19.6898 
 182   0.0000       0.731314        19.9001 
 183   0.0000       0.738294        20.0900 
 184   0.0000       0.743029        20.2188 
 185   0.0000       0.752442        20.4750 
 186   0.0000       0.760215        20.6865 
 187   0.0000       0.765904        20.8413 
 188   0.0000       0.777719        21.1628 
 189   0.0000       0.780426        21.2365 
 190   0.0000       0.787333        21.4244 
 191   0.0000       0.795050        21.6344 
 192   0.0000       0.808033        21.9877 
 193   0.0000       0.813946        22.1486 
 194   0.0000       0.839865        22.8539 
 195   0.0000       0.865990        23.5648 
 196   0.0000       0.870429        23.6856 
 197   0.0000       0.898750        24.4562 
 198   0.0000       0.902719        24.5642 
 199   0.0000       0.910442        24.7744 
 200   0.0000       0.917673        24.9712 
 201   0.0000       0.929389        25.2899 
 202   0.0000       0.939306        25.5598 
 203   0.0000       0.949113        25.8267 
 204   0.0000       0.961170        26.1548 
 205   0.0000       0.976324        26.5671 
 206   0.0000       0.986948        26.8562 
 207   0.0000       0.993840        27.0438 
 208   0.0000       1.016856        27.6701 
 209   0.0000       1.032830        28.1047 
 210   0.0000       1.055351        28.7176 
 211   0.0000       1.093216        29.7479 
 212   0.0000       1.095475        29.8094 
 213   0.0000       1.105814        30.0907 
 214   0.0000       1.129566        30.7371 
 215   0.0000       1.158490        31.5241 
 216   0.0000       1.168715        31.8024 
 217   0.0000       1.185153        32.2496 
 218   0.0000       1.189405        32.3654 
 219   0.0000       1.200443        32.6657 
 220   0.0000       1.214798        33.0563 
 221   0.0000       1.224125        33.3101 
 222   0.0000       1.228829        33.4381 
 223   0.0000       1.253421        34.1073 
 224   0.0000       1.266882        34.4736 
 225   0.0000       1.295318        35.2474 
 226   0.0000       1.305599        35.5272 
 227   0.0000       1.306699        35.5571 
 228   0.0000       1.320552        35.9340 
 229   0.0000       1.323602        36.0170 
 230   0.0000       1.327788        36.1310 
 231   0.0000       1.336537        36.3690 
 232   0.0000       1.349227        36.7143 
 233   0.0000       1.351030        36.7634 
 234   0.0000       1.368468        37.2379 
 235   0.0000       1.377453        37.4824 
 236   0.0000       1.383645        37.6509 
 237   0.0000       1.392171        37.8829 
 238   0.0000       1.396302        37.9953 
 239   0.0000       1.400291        38.1039 
 240   0.0000       1.409971        38.3673 
 241   0.0000       1.416509        38.5452 
 242   0.0000       1.417908        38.5832 
 243   0.0000       1.423592        38.7379 
 244   0.0000       1.434341        39.0304 
 245   0.0000       1.445397        39.3312 
 246   0.0000       1.448909        39.4268 
 247   0.0000       1.458055        39.6757 
 248   0.0000       1.462942        39.8087 
 249   0.0000       1.467116        39.9222 
 250   0.0000       1.479136        40.2493 
 251   0.0000       1.488311        40.4990 
 252   0.0000       1.499234        40.7962 
 253   0.0000       1.502182        40.8764 
 254   0.0000       1.504898        40.9503 
 255   0.0000       1.510244        41.0958 
 256   0.0000       1.515410        41.2364 
 257   0.0000       1.527511        41.5657 
 258   0.0000       1.531224        41.6667 
 259   0.0000       1.536653        41.8145 
 260   0.0000       1.539582        41.8942 
 261   0.0000       1.551867        42.2284 
 262   0.0000       1.557256        42.3751 
 263   0.0000       1.565778        42.6070 
 264   0.0000       1.570966        42.7482 
 265   0.0000       1.578714        42.9590 
 266   0.0000       1.588649        43.2293 
 267   0.0000       1.598958        43.5099 
 268   0.0000       1.609491        43.7965 
 269   0.0000       1.618941        44.0536 
 270   0.0000       1.627311        44.2814 
 271   0.0000       1.635959        44.5167 
 272   0.0000       1.653994        45.0075 
 273   0.0000       1.664553        45.2948 
 274   0.0000       1.677593        45.6496 
 275   0.0000       1.681735        45.7623 
 276   0.0000       1.699765        46.2530 
 277   0.0000       1.724677        46.9308 
 278   0.0000       1.732195        47.1354 
 279   0.0000       1.748235        47.5719 
 280   0.0000       1.757256        47.8174 
 281   0.0000       1.762968        47.9728 
 282   0.0000       1.791702        48.7547 
 283   0.0000       1.802070        49.0368 
 284   0.0000       1.805009        49.1168 
 285   0.0000       1.838264        50.0217 
 286   0.0000       1.860018        50.6137 
 287   0.0000       1.878239        51.1095 
 288   0.0000       1.912106        52.0310 
 289   0.0000       1.944145        52.9029 
 290   0.0000       1.977885        53.8210 
 291   0.0000       1.987987        54.0959 
 292   0.0000       1.996974        54.3404 
 293   0.0000       2.009737        54.6877 
 294   0.0000       2.031994        55.2934 
 295   0.0000       2.033958        55.3468 
 296   0.0000       2.039192        55.4892 
 297   0.0000       2.046988        55.7014 
 298   0.0000       2.063150        56.1412 
 299   0.0000       2.067141        56.2498 
 300   0.0000       2.073302        56.4174 
 301   0.0000       2.076187        56.4959 
 302   0.0000       2.087808        56.8121 
 303   0.0000       2.103051        57.2269 
 304   0.0000       2.107529        57.3488 
 305   0.0000       2.119389        57.6715 
 306   0.0000       2.132806        58.0366 
 307   0.0000       2.142230        58.2931 
 308   0.0000       2.159587        58.7654 
 309   0.0000       2.164575        58.9011 
 310   0.0000       2.179658        59.3115 
 311   0.0000       2.203401        59.9576 
 312   0.0000       2.210024        60.1378 
 313   0.0000       2.234146        60.7942 
 314   0.0000       2.238328        60.9080 
 315   0.0000       2.245543        61.1043 
 316   0.0000       2.256425        61.4005 
 317   0.0000       2.260434        61.5095 
 318   0.0000       2.267399        61.6991 
 319   0.0000       2.270873        61.7936 
 320   0.0000       2.280724        62.0617 
 321   0.0000       2.287101        62.2352 
 322   0.0000       2.294982        62.4496 
 323   0.0000       2.316307        63.0299 
 324   0.0000       2.321232        63.1639 
 325   0.0000       2.322849        63.2079 
 326   0.0000       2.326920        63.3187 
 327   0.0000       2.342609        63.7456 
 328   0.0000       2.353158        64.0327 
 329   0.0000       2.357973        64.1637 
 330   0.0000       2.360413        64.2301 
 331   0.0000       2.372052        64.5468 
 332   0.0000       2.374397        64.6106 
 333   0.0000       2.379974        64.7624 
 334   0.0000       2.390378        65.0455 
 335   0.0000       2.400203        65.3129 
 336   0.0000       2.416412        65.7539 
 337   0.0000       2.423558        65.9484 
 338   0.0000       2.430759        66.1443 
 339   0.0000       2.448745        66.6337 
 340   0.0000       2.464393        67.0595 
 341   0.0000       2.470240        67.2186 
 342   0.0000       2.496412        67.9308 
 343   0.0000       2.501659        68.0736 
 344   0.0000       2.508369        68.2562 
 345   0.0000       2.542232        69.1777 
 346   0.0000       2.559211        69.6397 
 347   0.0000       2.596329        70.6497 
 348   0.0000       2.602419        70.8154 
 349   0.0000       2.636943        71.7549 
 350   0.0000       2.648920        72.0808 
 351   0.0000       2.665937        72.5438 
 352   0.0000       2.673591        72.7521 
 353   0.0000       2.680149        72.9306 
 354   0.0000       2.686143        73.0937 
 355   0.0000       2.693715        73.2997 
 356   0.0000       2.702811        73.5472 
 357   0.0000       2.728955        74.2586 
 358   0.0000       2.736258        74.4574 
 359   0.0000       2.766849        75.2898 
 360   0.0000       2.768460        75.3336 
 361   0.0000       2.783977        75.7559 
 362   0.0000       2.802475        76.2592 
 363   0.0000       2.805378        76.3382 
 364   0.0000       2.823410        76.8289 
 365   0.0000       2.856744        77.7359 
 366   0.0000       2.885018        78.5053 
 367   0.0000       2.896610        78.8208 
 368   0.0000       2.918608        79.4194 
 369   0.0000       2.923483        79.5520 
 370   0.0000       2.950776        80.2947 
 371   0.0000       2.957291        80.4720 
 372   0.0000       2.969247        80.7973 
 373   0.0000       2.989938        81.3604 
 374   0.0000       3.005705        81.7894 
 375   0.0000       3.031030        82.4785 
 376   0.0000       3.074102        83.6506 
 377   0.0000       3.089804        84.0778 
 378   0.0000       3.100239        84.3618 
 379   0.0000       3.104679        84.4826 
 380   0.0000       3.127916        85.1149 
 381   0.0000       3.140643        85.4612 
 382   0.0000       3.156689        85.8979 
 383   0.0000       3.175398        86.4070 
 384   0.0000       3.204396        87.1961 
 385   0.0000       3.208609        87.3107 
 386   0.0000       3.218057        87.5678 
 387   0.0000       3.227387        87.8217 
 388   0.0000       3.246323        88.3369 
 389   0.0000       3.248537        88.3972 
 390   0.0000       3.260443        88.7212 
 391   0.0000       3.268641        88.9442 
 392   0.0000       3.281808        89.3025 
 393   0.0000       3.289884        89.5223 
 394   0.0000       3.292622        89.5968 
 395   0.0000       3.295451        89.6738 
 396   0.0000       3.301588        89.8408 
 397   0.0000       3.318307        90.2957 
 398   0.0000       3.328865        90.5830 
 399   0.0000       3.330975        90.6404 
 400   0.0000       3.335815        90.7721 
 401   0.0000       3.344479        91.0079 
 402   0.0000       3.349422        91.1424 
 403   0.0000       3.362326        91.4935 
 404   0.0000       3.400369        92.5288 
 405   0.0000       3.404597        92.6438 
 406   0.0000       3.411810        92.8401 
 407   0.0000       3.416942        92.9797 
 408   0.0000       3.438017        93.5532 
 409   0.0000       3.440458        93.6196 
 410   0.0000       3.456952        94.0685 
 411   0.0000       3.468410        94.3802 
 412   0.0000       3.475258        94.5666 
 413   0.0000       3.489203        94.9460 
 414   0.0000       3.500049        95.2412 
 415   0.0000       3.508515        95.4715 
 416   0.0000       3.536881        96.2434 
 417   0.0000       3.588799        97.6562 
 418   0.0000       3.599072        97.9357 
 419   0.0000       3.600946        97.9867 
 420   0.0000       3.622056        98.5612 
 421   0.0000       3.656080        99.4870 
 422   0.0000       3.684023       100.2474 
 423   0.0000       3.697889       100.6247 
 424   0.0000       3.724039       101.3363 
 425   0.0000       3.745773       101.9277 
 426   0.0000       3.802922       103.4828 
 427   0.0000       3.863635       105.1349 
 428   0.0000       3.985916       108.4623 
 429   0.0000       4.059645       110.4686 
 430   0.0000       4.085360       111.1683 
 431   0.0000       4.112095       111.8958 
 432   0.0000       4.147633       112.8628 
 433   0.0000       4.156223       113.0966 
 434   0.0000       4.261231       115.9540 
 435   0.0000       4.362497       118.7096 
 436   0.0000       4.463037       121.4454 
 437   0.0000       4.587484       124.8318 
 438   0.0000       4.686370       127.5226 
 439   0.0000       4.797877       130.5569 
 440   0.0000      21.456198       583.8528 
 441   0.0000      21.472767       584.3037 
 442   0.0000      21.883215       595.4726 
 443   0.0000      21.925858       596.6329 
 444   0.0000      22.016885       599.1099 
 445   0.0000      22.042201       599.7988 
 446   0.0000      22.085021       600.9640 
 447   0.0000      22.143304       602.5499 
 448   0.0000      22.189739       603.8135 
 449   0.0000      22.194428       603.9411 
 450   0.0000      22.229662       604.8998 
 451   0.0000      22.251505       605.4942 
 452   0.0000      22.326586       607.5373 
 453   0.0000      22.351532       608.2161 
 454   0.0000      32.072291       872.7314 
 455   0.0000      43.607869      1186.6304 
 456   0.0000      43.732997      1190.0353 
 457   0.0000      57.175379      1555.8212 
 458   0.0000      57.202704      1556.5647 
 459   0.0000      57.317767      1559.6957 
Total SCF time: 0 days 0 hours 0 min 18 sec 

Maximum memory used throughout the entire SCF-calculation: 85.5 MB


-------------------------------------------------------------------------------
                          DFT DISPERSION CORRECTION                            
                                                                               
                                 DFTD4 V2.5                                    
-------------------------------------------------------------------------------
Starting D4
-------------------------   ----------------
Dispersion correction           -0.013410830
-------------------------   ----------------

------------------   -----------------
gCP correction             0.017502284
------------------   -----------------

-------------------------   --------------------
FINAL SINGLE POINT ENERGY     -1044.163283658344
-------------------------   --------------------

                                *** OPTIMIZATION RUN DONE ***

                            ***************************************
                            *     ORCA property calculations      *
                            ***************************************

                                    ---------------------
                                    Active property flags
                                    ---------------------
   (+) Dipole Moment


------------------------------------------------------------------------------
                       ORCA ELECTRIC PROPERTIES CALCULATION
------------------------------------------------------------------------------

Dipole Moment Calculation                       ... on
Quadrupole Moment Calculation                   ... off
Polarizability Calculation                      ... off
GBWName                                         ... opt_0.gbw
Electron density                                ... opt_0.scfp
The origin for moment calculation is the CENTER OF MASS  = ( 0.000155, -0.008566 -0.037447)

-------------
DIPOLE MOMENT
-------------
                                X             Y             Z
Electronic contribution:    -18.68639       3.64931      -5.68987
Nuclear contribution   :     19.48183      -2.51090       6.29701
                        -----------------------------------------
Total Dipole Moment    :      0.79544       1.13840       0.60714
                        -----------------------------------------
Magnitude (a.u.)       :      1.51568
Magnitude (Debye)      :      3.85256



--------------------
Rotational spectrum 
--------------------
 
Rotational constants in cm-1:     0.020133     0.005949     0.005126 
Rotational constants in MHz :   603.578313   178.336985   153.683952 

 Dipole components along the rotational axes: 
x,y,z [a.u.] :     0.803206    -1.136634     0.600182 
x,y,z [Debye]:     2.041588    -2.889094     1.525542 

 

Timings for individual modules:

Sum of individual times         ...      359.999 sec (=   6.000 min)
GTO integral calculation        ...       17.423 sec (=   0.290 min)   4.8 %
SCF iterations                  ...      293.809 sec (=   4.897 min)  81.6 %
SCF Gradient evaluation         ...       48.200 sec (=   0.803 min)  13.4 %
Geometry relaxation             ...        0.567 sec (=   0.009 min)   0.2 %
                             ****ORCA TERMINATED NORMALLY****
TOTAL RUN TIME: 0 days 0 hours 6 minutes 13 seconds 267 msec
