
                                 *****************
                                 * O   R   C   A *
                                 *****************

                                            #,                                       
                                            ###                                      
                                            ####                                     
                                            #####                                    
                                            ######                                   
                                           ########,                                 
                                     ,,################,,,,,                         
                               ,,#################################,,                 
                          ,,##########################################,,             
                       ,#########################################, ''#####,          
                    ,#############################################,,   '####,        
                  ,##################################################,,,,####,       
                ,###########''''           ''''###############################       
              ,#####''   ,,,,##########,,,,          '''####'''          '####       
            ,##' ,,,,###########################,,,                        '##       
           ' ,,###''''                  '''############,,,                           
         ,,##''                                '''############,,,,        ,,,,,,###''
      ,#''                                            '''#######################'''  
     '                                                          ''''####''''         
             ,#######,   #######,   ,#######,      ##                                
            ,#'     '#,  ##    ##  ,#'     '#,    #''#        ######   ,####,        
            ##       ##  ##   ,#'  ##            #'  '#       #        #'  '#        
            ##       ##  #######   ##           ,######,      #####,   #    #        
            '#,     ,#'  ##    ##  '#,     ,#' ,#      #,         ##   #,  ,#        
             '#######'   ##     ##  '#######'  #'      '#     #####' # '####'        



                  #######################################################
                  #                        -***-                        #
                  #          Department of theory and spectroscopy      #
                  #    Directorship and core code : Frank Neese         #
                  #        Max Planck Institute fuer Kohlenforschung    #
                  #                Kaiser Wilhelm Platz 1               #
                  #                 D-45470 Muelheim/Ruhr               #
                  #                      Germany                        #
                  #                                                     #
                  #                  All rights reserved                #
                  #                        -***-                        #
                  #######################################################


                         Program Version 5.0.1 -  RELEASE  -


 With contributions from (in alphabetic order):
   Daniel Aravena         : Magnetic Suceptibility
   Michael Atanasov       : Ab Initio Ligand Field Theory (pilot matlab implementation)
   Alexander A. Auer      : GIAO ZORA, VPT2 properties, NMR spectrum
   Ute Becker             : Parallelization
   Giovanni Bistoni       : ED, misc. LED, open-shell LED, HFLD
   Martin Brehm           : Molecular dynamics
   Dmytro Bykov           : SCF Hessian
   Vijay G. Chilkuri      : MRCI spin determinant printing, contributions to CSF-ICE
   Dipayan Datta          : RHF DLPNO-CCSD density
   Achintya Kumar Dutta   : EOM-CC, STEOM-CC
   Dmitry Ganyushin       : Spin-Orbit,Spin-Spin,Magnetic field MRCI
   Miquel Garcia          : C-PCM and meta-GGA Hessian, CC/C-PCM, Gaussian charge scheme
   Yang Guo               : DLPNO-NEVPT2, F12-NEVPT2, CIM, IAO-localization
   Andreas Hansen         : Spin unrestricted coupled pair/coupled cluster methods
   Benjamin Helmich-Paris : MC-RPA, TRAH-SCF, COSX integrals
   Lee Huntington         : MR-EOM, pCC
   Robert Izsak           : Overlap fitted RIJCOSX, COSX-SCS-MP3, EOM
   Marcus Kettner         : VPT2
   Christian Kollmar      : KDIIS, OOCD, Brueckner-CCSD(T), CCSD density, CASPT2, CASPT2-K
   Simone Kossmann        : Meta GGA functionals, TD-DFT gradient, OOMP2, MP2 Hessian
   Martin Krupicka        : Initial AUTO-CI
   Lucas Lang             : DCDCAS
   Marvin Lechner         : AUTO-CI (C++ implementation), FIC-MRCC
   Dagmar Lenk            : GEPOL surface, SMD
   Dimitrios Liakos       : Extrapolation schemes; Compound Job, initial MDCI parallelization
   Dimitrios Manganas     : Further ROCIS development; embedding schemes
   Dimitrios Pantazis     : SARC Basis sets
   Anastasios Papadopoulos: AUTO-CI, single reference methods and gradients
   Taras Petrenko         : DFT Hessian,TD-DFT gradient, ASA, ECA, R-Raman, ABS, FL, XAS/XES, NRVS
   Peter Pinski           : DLPNO-MP2, DLPNO-MP2 Gradient
   Christoph Reimann      : Effective Core Potentials
   Marius Retegan         : Local ZFS, SOC
   Christoph Riplinger    : Optimizer, TS searches, QM/MM, DLPNO-CCSD(T), (RO)-DLPNO pert. Triples
   Tobias Risthaus        : Range-separated hybrids, TD-DFT gradient, RPA, STAB
   Michael Roemelt        : Original ROCIS implementation
   Masaaki Saitow         : Open-shell DLPNO-CCSD energy and density
   Barbara Sandhoefer     : DKH picture change effects
   Avijit Sen             : IP-ROCIS
   Kantharuban Sivalingam : CASSCF convergence, NEVPT2, FIC-MRCI
   Bernardo de Souza      : ESD, SOC TD-DFT
   Georgi Stoychev        : AutoAux, RI-MP2 NMR, DLPNO-MP2 response
   Willem Van den Heuvel  : Paramagnetic NMR
   Boris Wezisla          : Elementary symmetry handling
   Frank Wennmohs         : Technical directorship


 We gratefully acknowledge several colleagues who have allowed us to
 interface, adapt or use parts of their codes:
   Stefan Grimme, W. Hujo, H. Kruse, P. Pracht,  : VdW corrections, initial TS optimization,
                  C. Bannwarth, S. Ehlert          DFT functionals, gCP, sTDA/sTD-DF
   Ed Valeev, F. Pavosevic, A. Kumar             : LibInt (2-el integral package), F12 methods
   Garnet Chan, S. Sharma, J. Yang, R. Olivares  : DMRG
   Ulf Ekstrom                                   : XCFun DFT Library
   Mihaly Kallay                                 : mrcc  (arbitrary order and MRCC methods)
   Jiri Pittner, Ondrej Demel                    : Mk-CCSD
   Frank Weinhold                                : gennbo (NPA and NBO analysis)
   Christopher J. Cramer and Donald G. Truhlar   : smd solvation model
   Lars Goerigk                                  : TD-DFT with DH, B97 family of functionals
   V. Asgeirsson, H. Jonsson                     : NEB implementation
   FAccTs GmbH                                   : IRC, NEB, NEB-TS, DLPNO-Multilevel, CI-OPT
                                                   MM, QMMM, 2- and 3-layer-ONIOM, Crystal-QMMM,
                                                   LR-CPCM, SF, NACMEs, symmetry and pop. for TD-DFT,
                                                   nearIR, NL-DFT gradient (VV10), updates on ESD,
                                                   ML-optimized integration grids
   S Lehtola, MJT Oliveira, MAL Marques          : LibXC Library
   Liviu Ungur et al                             : ANISO software


 Your calculation uses the libint2 library for the computation of 2-el integrals
 For citations please refer to: http://libint.valeyev.net

 Your ORCA version has been built with support for libXC version: 5.1.0
 For citations please refer to: https://tddft.org/programs/libxc/

 This ORCA versions uses:
   CBLAS   interface :  Fast vector & matrix operations
   LAPACKE interface :  Fast linear algebra routines
   SCALAPACK package :  Parallel linear algebra routines
   Shared memory     :  Shared parallel matrices
   BLAS/LAPACK       :  OpenBLAS 0.3.15  USE64BITINT DYNAMIC_ARCH NO_AFFINITY SkylakeX SINGLE_THREADED
        Core in use  :  SkylakeX
   Copyright (c) 2011-2014, The OpenBLAS Project


Your calculation utilizes the geometrical counterpoise correction gCP
Please cite in your paper:
H.Kruse, S. Grimme J.Chem.Phys., 136, (2012), 154101 
   

Your calculation utilizes the atom-pairwise dispersion correction
based on tight binding partial charges (D4)
Cite in your paper:
E.Caldeweyher, C.Bannwarth, S.Grimme, J.Chem.Phys., (2017), 147, 034112.
E.Caldeweyher, S.Ehlert, A.Hansen, H.Neugebauer, S.Grimme, J.Chem.Phys., (2018), in progress.
   

Your calculation utilizes the SMD solvation module
Please cite in your paper:
A.V. Marenich, C.J. Cramer, D.G. Truhlar J. Phys. Chem. B, 113, (2009), 6378 

================================================================================

----- Orbital basis set information -----
Your calculation utilizes the basis: def2-mTZVPP
   Stefan Grimme, Andreas Hansen, Sebastian Ehlert, and Jan-Michael Mewes 
   J. Chem. Phys. 154, 000000 (2021). DOI: 10.1063/5.0040021

----- AuxJ basis set information -----
Your calculation utilizes the basis: def2-mTZVPP/J
   Stefan Grimme, Andreas Hansen, Sebastian Ehlert, and Jan-Michael Mewes 
   J. Chem. Phys. 154, 000000 (2021). DOI: 10.1063/5.0040021

================================================================================
                                        WARNINGS
                       Please study these warnings very carefully!
================================================================================

Using LibXC functional ID 497 : Re-regularized SCAN exchange by Furness et al
[ 1]  J. W. Furness, A. D. Kaplan, J. Ning, J. P. Perdew, and J. Sun, J. Phys. Chem. Lett. 11, 8208 (2020)
[ 2]  J. W. Furness, A. D. Kaplan, J. Ning, J. P. Perdew, and J. Sun, J. Phys. Chem. Lett. 11, 9248 (2020)
Using LibXC functional ID 498 : Re-regularized SCAN correlation by Furness et al
[ 1]  J. W. Furness, A. D. Kaplan, J. Ning, J. P. Perdew, and J. Sun, J. Phys. Chem. Lett. 11, 8208 (2020)
[ 2]  J. W. Furness, A. D. Kaplan, J. Ning, J. P. Perdew, and J. Sun, J. Phys. Chem. Lett. 11, 9248 (2020)
Using LibXC functional ID 497 : Re-regularized SCAN exchange by Furness et al
[ 1]  J. W. Furness, A. D. Kaplan, J. Ning, J. P. Perdew, and J. Sun, J. Phys. Chem. Lett. 11, 8208 (2020)
[ 2]  J. W. Furness, A. D. Kaplan, J. Ning, J. P. Perdew, and J. Sun, J. Phys. Chem. Lett. 11, 9248 (2020)
Using LibXC functional ID 498 : Re-regularized SCAN correlation by Furness et al
[ 1]  J. W. Furness, A. D. Kaplan, J. Ning, J. P. Perdew, and J. Sun, J. Phys. Chem. Lett. 11, 8208 (2020)
[ 2]  J. W. Furness, A. D. Kaplan, J. Ning, J. P. Perdew, and J. Sun, J. Phys. Chem. Lett. 11, 9248 (2020)

INFO   : the flag for use of the SHARK integral package has been found!

================================================================================
                                       INPUT FILE
================================================================================
NAME = opt_3.inp
|  1> ! r2SCAN-3c opt tightSCF noautostart miniprint nopop
|  2> %maxcore  7000
|  3> %pal nprocs   48 end
|  4> %cpcm
|  5> smd true
|  6> SMDsolvent "water"
|  7> end
|  8> * xyz   0   1
|  9> C 3.725 2.290 -0.553
| 10> C 3.851 1.564 -1.729
| 11> C 3.106 0.419 -1.925
| 12> C 2.230 -0.045 -0.943
| 13> C 2.161 0.651 0.277
| 14> C 2.881 1.833 0.440
| 15> C 1.375 0.173 1.444
| 16> O 0.705 0.910 2.137
| 17> O 1.475 -1.121 1.755
| 18> N 1.484 -1.193 -1.181
| 19> C 0.150 -1.379 -0.863
| 20> C -0.394 -2.664 -0.954
| 21> C -1.708 -2.900 -0.609
| 22> C -2.517 -1.867 -0.163
| 23> C -1.987 -0.584 -0.110
| 24> C -0.674 -0.325 -0.467
| 25> C -2.855 0.534 0.371
| 26> F -3.055 0.501 1.709
| 27> F -2.376 1.760 0.101
| 28> F -4.097 0.504 -0.167
| 29> H 4.285 3.199 -0.408
| 30> H 4.521 1.905 -2.503
| 31> H 3.187 -0.124 -2.854
| 32> H 2.778 2.364 1.374
| 33> H 2.107 -1.608 1.194
| 34> H 1.841 -1.796 -1.910
| 35> H 0.228 -3.478 -1.291
| 36> H -2.110 -3.898 -0.675
| 37> H -3.540 -2.040 0.127
| 38> H -0.308 0.690 -0.445
| 39> *
| 40> 
| 41>                          ****END OF INPUT****
================================================================================

                       *****************************
                       * Geometry Optimization Run *
                       *****************************

Geometry optimization settings:
Update method            Update   .... BFGS
Choice of coordinates    CoordSys .... Z-matrix Internals
Initial Hessian          InHess   .... Almoef's Model

Convergence Tolerances:
Energy Change            TolE     ....  5.0000e-06 Eh
Max. Gradient            TolMAXG  ....  3.0000e-04 Eh/bohr
RMS Gradient             TolRMSG  ....  1.0000e-04 Eh/bohr
Max. Displacement        TolMAXD  ....  4.0000e-03 bohr
RMS Displacement         TolRMSD  ....  2.0000e-03 bohr
Strict Convergence                ....  False
------------------------------------------------------------------------------
                        ORCA OPTIMIZATION COORDINATE SETUP
------------------------------------------------------------------------------

The optimization will be done in new redundant internal coordinates
Making redundant internal coordinates   ...  (new redundants) done
Evaluating the initial hessian          ...  (Almloef) done
Evaluating the coordinates              ...  done
Calculating the B-matrix                .... done
Calculating the G-matrix                .... done
Diagonalizing the G-matrix              .... done
Small eigenvalue found = 3.609e-03
Small eigenvalue found = 1.415e-02
Small eigenvalue found = 1.525e-02
The first mode is                       ....   64
The number of degrees of freedom        ....   84

    -----------------------------------------------------------------
                    Redundant Internal Coordinates


    -----------------------------------------------------------------
         Definition                    Initial Value    Approx d2E/dq
    -----------------------------------------------------------------
      1. B(C   1,C   0)                  1.3878         0.629917   
      2. B(C   2,C   1)                  1.3800         0.648119   
      3. B(C   3,C   2)                  1.3953         0.612641   
      4. B(C   4,C   3)                  1.4063         0.588561   
      5. B(C   5,C   4)                  1.3936         0.616611   
      6. B(C   5,C   0)                  1.3810         0.645736   
      7. B(C   6,C   4)                  1.4860         0.439128   
      8. B(O   7,C   6)                  1.2134         1.070641   
      9. B(O   8,C   6)                  1.3346         0.685903   
     10. B(N   9,C   3)                  1.3896         0.560364   
     11. B(C  10,N   9)                  1.3839         0.572205   
     12. B(C  11,C  10)                  1.3984         0.605875   
     13. B(C  12,C  11)                  1.3789         0.650842   
     14. B(C  13,C  12)                  1.3858         0.634474   
     15. B(C  14,C  13)                  1.3892         0.626701   
     16. B(C  15,C  14)                  1.3851         0.636148   
     17. B(C  15,C  10)                  1.3952         0.612873   
     18. B(C  16,C  14)                  1.4949         0.424997   
     19. B(F  17,C  16)                  1.3533         0.595074   
     20. B(F  18,C  16)                  1.3437         0.616456   
     21. B(F  19,C  16)                  1.3538         0.593804   
     22. B(H  20,C   0)                  1.0775         0.377086   
     23. B(H  21,C   1)                  1.0790         0.374939   
     24. B(H  22,C   2)                  1.0791         0.374816   
     25. B(H  23,C   5)                  1.0793         0.374513   
     26. B(H  24,O   8)                  0.9754         0.491441   
     27. B(H  25,N   9)                  1.0112         0.430825   
     28. B(H  26,C  11)                  1.0784         0.375711   
     29. B(H  27,C  12)                  1.0779         0.376407   
     30. B(H  28,C  13)                  1.0773         0.377310   
     31. B(H  29,C  15)                  1.0792         0.374679   
     32. A(C   5,C   0,H  20)          120.0032         0.358143   
     33. A(C   1,C   0,H  20)          120.5440         0.356636   
     34. A(C   1,C   0,C   5)          119.4509         0.438510   
     35. A(C   0,C   1,C   2)          120.3569         0.438802   
     36. A(C   2,C   1,H  21)          119.7055         0.358019   
     37. A(C   0,C   1,H  21)          119.9279         0.356290   
     38. A(C   1,C   2,C   3)          120.9883         0.436607   
     39. A(C   1,C   2,H  22)          119.9504         0.357999   
     40. A(C   3,C   2,H  22)          119.0564         0.354594   
     41. A(C   2,C   3,C   4)          118.4750         0.429105   
     42. A(C   4,C   3,N   9)          122.0808         0.419565   
     43. A(C   2,C   3,N   9)          119.4198         0.422579   
     44. A(C   3,C   4,C   5)          119.7294         0.429603   
     45. A(C   5,C   4,C   6)          117.0169         0.407756   
     46. A(C   3,C   4,C   6)          123.2343         0.404414   
     47. A(C   0,C   5,C   4)          120.8182         0.436825   
     48. A(C   4,C   5,H  23)          117.9819         0.354933   
     49. A(C   0,C   5,H  23)          121.1808         0.357726   
     50. A(C   4,C   6,O   8)          117.0815         0.412846   
     51. A(O   7,C   6,O   8)          119.8147         0.481965   
     52. A(C   4,C   6,O   7)          123.0391         0.447185   
     53. A(C   6,O   8,H  24)          113.4929         0.372969   
     54. A(C   3,N   9,C  10)          126.0960         0.414761   
     55. A(C  10,N   9,H  25)          115.2027         0.353555   
     56. A(C   3,N   9,H  25)          115.2510         0.352306   
     57. A(N   9,C  10,C  11)          118.9167         0.423320   
     58. A(C  11,C  10,C  15)          118.8749         0.431374   
     59. A(N   9,C  10,C  15)          122.2054         0.424191   
     60. A(C  12,C  11,H  26)          119.9085         0.358400   
     61. A(C  10,C  11,H  26)          119.3116         0.354070   
     62. A(C  10,C  11,C  12)          120.7780         0.436063   
     63. A(C  13,C  12,H  27)          119.4803         0.356964   
     64. A(C  11,C  12,H  27)          119.9024         0.358513   
     65. A(C  11,C  12,C  13)          120.6137         0.439706   
     66. A(C  14,C  13,H  28)          120.0224         0.356362   
     67. A(C  12,C  13,H  28)          121.4183         0.357109   
     68. A(C  12,C  13,C  14)          118.5546         0.436718   
     69. A(C  15,C  14,C  16)          119.5712         0.407646   
     70. A(C  13,C  14,C  16)          118.7813         0.406569   
     71. A(C  13,C  14,C  15)          121.6365         0.436925   
     72. A(C  14,C  15,H  29)          119.4787         0.356844   
     73. A(C  10,C  15,H  29)          121.0632         0.354594   
     74. A(C  10,C  15,C  14)          119.4545         0.435173   
     75. A(F  18,C  16,F  19)          105.5099         0.420936   
     76. A(F  17,C  16,F  19)          104.8792         0.418294   
     77. A(C  14,C  16,F  19)          112.8448         0.398398   
     78. A(F  17,C  16,F  18)          105.8794         0.421097   
     79. A(C  14,C  16,F  18)          114.2514         0.401031   
     80. A(C  14,C  16,F  17)          112.6877         0.398548   
     81. D(C   2,C   1,C   0,H  20)   -178.3135         0.027512   
     82. D(H  21,C   1,C   0,H  20)      0.5501         0.027512   
     83. D(C   2,C   1,C   0,C   5)      2.1816         0.027512   
     84. D(H  21,C   1,C   0,C   5)   -178.9547         0.027512   
     85. D(H  22,C   2,C   1,C   0)    178.1527         0.029236   
     86. D(H  22,C   2,C   1,H  21)     -0.7135         0.029236   
     87. D(C   3,C   2,C   1,C   0)     -1.0402         0.029236   
     88. D(C   3,C   2,C   1,H  21)   -179.9064         0.029236   
     89. D(N   9,C   3,C   2,H  22)      0.0512         0.025935   
     90. D(N   9,C   3,C   2,C   1)    179.2512         0.025935   
     91. D(C   4,C   3,C   2,H  22)    178.2888         0.025935   
     92. D(C   4,C   3,C   2,C   1)     -2.5113         0.025935   
     93. D(C   6,C   4,C   3,C   2)   -173.4329         0.023833   
     94. D(C   5,C   4,C   3,N   9)   -176.8962         0.023833   
     95. D(C   5,C   4,C   3,C   2)      4.9156         0.023833   
     96. D(C   6,C   4,C   3,N   9)      4.7553         0.023833   
     97. D(H  23,C   5,C   4,C   6)     -3.8481         0.026292   
     98. D(C   0,C   5,C   4,C   6)    174.5812         0.026292   
     99. D(C   0,C   5,C   4,C   3)     -3.8682         0.026292   
    100. D(H  23,C   5,C   0,H  20)     -0.8414         0.029006   
    101. D(H  23,C   5,C   0,C   1)    178.6662         0.029006   
    102. D(H  23,C   5,C   4,C   3)    177.7025         0.026292   
    103. D(C   4,C   5,C   0,H  20)   -179.2201         0.029006   
    104. D(C   4,C   5,C   0,C   1)      0.2875         0.029006   
    105. D(O   8,C   6,C   4,C   5)   -133.8591         0.013159   
    106. D(O   8,C   6,C   4,C   3)     44.5310         0.013159   
    107. D(O   7,C   6,C   4,C   5)     43.2059         0.013159   
    108. D(O   7,C   6,C   4,C   3)   -138.4039         0.013159   
    109. D(H  24,O   8,C   6,O   7)   -174.0013         0.035097   
    110. D(H  24,O   8,C   6,C   4)      3.1630         0.035097   
    111. D(C  10,N   9,C   3,C   2)   -137.8925         0.025079   
    112. D(H  25,N   9,C   3,C   4)   -158.1615         0.025079   
    113. D(H  25,N   9,C   3,C   2)     20.0101         0.025079   
    114. D(C  10,N   9,C   3,C   4)     43.9360         0.025079   
    115. D(C  15,C  10,N   9,H  25)   -146.2617         0.026216   
    116. D(C  15,C  10,N   9,C   3)     11.6501         0.026216   
    117. D(C  11,C  10,N   9,H  25)     33.1026         0.026216   
    118. D(C  11,C  10,N   9,C   3)   -168.9857         0.026216   
    119. D(H  26,C  11,C  10,C  15)    177.9735         0.025333   
    120. D(H  26,C  11,C  10,N   9)     -1.4121         0.025333   
    121. D(C  12,C  11,C  10,C  15)     -2.5213         0.025333   
    122. D(C  12,C  11,C  10,N   9)    178.0930         0.025333   
    123. D(H  27,C  12,C  11,H  26)      0.1248         0.029499   
    124. D(H  27,C  12,C  11,C  10)   -179.3773         0.029499   
    125. D(C  13,C  12,C  11,H  26)    179.4329         0.029499   
    126. D(C  13,C  12,C  11,C  10)     -0.0693         0.029499   
    127. D(H  28,C  13,C  12,H  27)      0.4420         0.027937   
    128. D(H  28,C  13,C  12,C  11)   -178.8689         0.027937   
    129. D(C  14,C  13,C  12,H  27)   -178.7736         0.027937   
    130. D(C  14,C  13,C  12,C  11)      1.9155         0.027937   
    131. D(C  16,C  14,C  13,H  28)      0.8048         0.027214   
    132. D(C  16,C  14,C  13,C  12)   -179.9684         0.027214   
    133. D(C  15,C  14,C  13,H  28)    179.5919         0.027214   
    134. D(C  15,C  14,C  13,C  12)     -1.1812         0.027214   
    135. D(H  29,C  15,C  14,C  16)     -3.3066         0.028094   
    136. D(H  29,C  15,C  14,C  13)    177.9156         0.028094   
    137. D(C  10,C  15,C  14,C  16)    177.3737         0.028094   
    138. D(C  10,C  15,C  14,C  13)     -1.4041         0.028094   
    139. D(H  29,C  15,C  10,C  11)   -176.0893         0.025956   
    140. D(H  29,C  15,C  10,N   9)      3.2751         0.025956   
    141. D(C  14,C  15,C  10,C  11)      3.2193         0.025956   
    142. D(C  14,C  15,C  10,N   9)   -177.4162         0.025956   
    143. D(F  17,C  16,C  14,C  13)     73.7050         0.013347   
    144. D(F  19,C  16,C  14,C  15)    136.3292         0.013347   
    145. D(F  19,C  16,C  14,C  13)    -44.8581         0.013347   
    146. D(F  18,C  16,C  14,C  15)     15.7961         0.013347   
    147. D(F  18,C  16,C  14,C  13)   -165.3912         0.013347   
    148. D(F  17,C  16,C  14,C  15)   -105.1077         0.013347   
    -----------------------------------------------------------------

Number of atoms                         .... 30
Number of degrees of freedom            .... 148

         *************************************************************
         *                GEOMETRY OPTIMIZATION CYCLE   1            *
         *************************************************************
---------------------------------
CARTESIAN COORDINATES (ANGSTROEM)
---------------------------------
  C      3.725000    2.290000   -0.553000
  C      3.851000    1.564000   -1.729000
  C      3.106000    0.419000   -1.925000
  C      2.230000   -0.045000   -0.943000
  C      2.161000    0.651000    0.277000
  C      2.881000    1.833000    0.440000
  C      1.375000    0.173000    1.444000
  O      0.705000    0.910000    2.137000
  O      1.475000   -1.121000    1.755000
  N      1.484000   -1.193000   -1.181000
  C      0.150000   -1.379000   -0.863000
  C     -0.394000   -2.664000   -0.954000
  C     -1.708000   -2.900000   -0.609000
  C     -2.517000   -1.867000   -0.163000
  C     -1.987000   -0.584000   -0.110000
  C     -0.674000   -0.325000   -0.467000
  C     -2.855000    0.534000    0.371000
  F     -3.055000    0.501000    1.709000
  F     -2.376000    1.760000    0.101000
  F     -4.097000    0.504000   -0.167000
  H      4.285000    3.199000   -0.408000
  H      4.521000    1.905000   -2.503000
  H      3.187000   -0.124000   -2.854000
  H      2.778000    2.364000    1.374000
  H      2.107000   -1.608000    1.194000
  H      1.841000   -1.796000   -1.910000
  H      0.228000   -3.478000   -1.291000
  H     -2.110000   -3.898000   -0.675000
  H     -3.540000   -2.040000    0.127000
  H     -0.308000    0.690000   -0.445000

----------------------------
CARTESIAN COORDINATES (A.U.)
----------------------------
  NO LB      ZA    FRAG     MASS         X           Y           Z
   0 C     6.0000    0    12.011    7.039230    4.327473   -1.045019
   1 C     6.0000    0    12.011    7.277335    2.955532   -3.267336
   2 C     6.0000    0    12.011    5.869489    0.791795   -3.637723
   3 C     6.0000    0    12.011    4.214089   -0.085038   -1.782012
   4 C     6.0000    0    12.011    4.083698    1.230212    0.523454
   5 C     6.0000    0    12.011    5.444301    3.463868    0.831479
   6 C     6.0000    0    12.011    2.598373    0.326923    2.728765
   7 O     8.0000    0    15.999    1.332257    1.719651    4.038345
   8 O     8.0000    0    15.999    2.787346   -2.118383    3.316469
   9 N     7.0000    0    14.007    2.804354   -2.254443   -2.231767
  10 C     6.0000    0    12.011    0.283459   -2.605932   -1.630834
  11 C     6.0000    0    12.011   -0.744552   -5.034230   -1.802799
  12 C     6.0000    0    12.011   -3.227652   -5.480206   -1.150843
  13 C     6.0000    0    12.011   -4.756441   -3.528119   -0.308025
  14 C     6.0000    0    12.011   -3.754886   -1.103600   -0.207870
  15 C     6.0000    0    12.011   -1.273675   -0.614161   -0.882502
  16 C     6.0000    0    12.011   -5.395168    1.009114    0.701088
  17 F     9.0000    0    18.998   -5.773113    0.946753    3.229542
  18 F     9.0000    0    18.998   -4.489989    3.325918    0.190862
  19 F     9.0000    0    18.998   -7.742208    0.952422   -0.315584
  20 H     1.0000    0     1.008    8.097476    6.045234   -0.771008
  21 H     1.0000    0     1.008    8.543452    3.599928   -4.729985
  22 H     1.0000    0     1.008    6.022557   -0.234326   -5.393278
  23 H     1.0000    0     1.008    5.249659    4.467313    2.596484
  24 H     1.0000    0     1.008    3.981653   -3.038680    2.256333
  25 H     1.0000    0     1.008    3.478986   -3.393948   -3.609377
  26 H     1.0000    0     1.008    0.430858   -6.572467   -2.439636
  27 H     1.0000    0     1.008   -3.987322   -7.366152   -1.275565
  28 H     1.0000    0     1.008   -6.689631   -3.855041    0.239995
  29 H     1.0000    0     1.008   -0.582036    1.303911   -0.840928



           ************************************************************
           *        Program running with 48 parallel MPI-processes    *
           *              working on a common directory               *
           ************************************************************
------------------------------------------------------------------------------
                   ___                                                        
                  /   \      - P O W E R E D   B Y -                         
                 /     \                                                     
                 |  |  |   _    _      __       _____    __    __             
                 |  |  |  | |  | |    /  \     |  _  \  |  |  /  |          
                  \  \/   | |  | |   /    \    | | | |  |  | /  /          
                 / \  \   | |__| |  /  /\  \   | |_| |  |  |/  /          
                |  |  |   |  __  | /  /__\  \  |    /   |      \           
                |  |  |   | |  | | |   __   |  |    \   |  |\   \          
                \     /   | |  | | |  |  |  |  | |\  \  |  | \   \       
                 \___/    |_|  |_| |__|  |__|  |_| \__\ |__|  \__/        
                                                                              
                      - O R C A' S   B I G   F R I E N D -                    
                                      &                                       
                       - I N T E G R A L  F E E D E R -                       
                                                                              
 v1 FN, 2020, v2 2021                                                         
------------------------------------------------------------------------------


Reading SHARK input file opt_3.SHARKINP.tmp ... ok
----------------------
SHARK INTEGRAL PACKAGE
----------------------

Number of atoms                             ...     30
Number of basis functions                   ...    460
Number of shells                            ...    216
Maximum angular momentum                    ...      2
Integral batch strategy                     ... SHARK/LIBINT Hybrid
RI-J (if used) integral strategy            ... SPLIT-RIJ (Revised 2003 algorithm where possible)
Printlevel                                  ...      1
Contraction scheme used                     ... SEGMENTED contraction
Coulomb Range Separation                    ... NOT USED
Exchange Range Separation                   ... NOT USED
Finite Nucleus Model                        ... NOT USED
Auxiliary Coulomb fitting basis             ... AVAILABLE
   # of basis functions in Aux-J            ...    725
   # of shells in Aux-J                     ...    293
   Maximum angular momentum in Aux-J        ...      2
Auxiliary J/K fitting basis                 ... NOT available
Auxiliary Correlation fitting basis         ... NOT available
Auxiliary 'external' fitting basis          ... NOT available
Integral threshold                          ...     2.500000e-11
Primitive cut-off                           ...     2.500000e-12
Primitive pair pre-selection threshold      ...     2.500000e-12

Calculating pre-screening integrals         ... done (  0.1 sec) Dimension = 216
Organizing shell pair data                  ... done (  0.1 sec)
Shell pair information
Total number of shell pairs                 ...     23436
Shell pairs after pre-screening             ...     17777
Total number of primitive shell pairs       ...     87206
Primitive shell pairs kept                  ...     42208
          la=0 lb=0:   5136 shell pairs
          la=1 lb=0:   6571 shell pairs
          la=1 lb=1:   2089 shell pairs
          la=2 lb=0:   2254 shell pairs
          la=2 lb=1:   1454 shell pairs
          la=2 lb=2:    273 shell pairs

Calculating one electron integrals          ... done (  0.0 sec)
Calculating RI/J V-Matrix + Cholesky decomp.... done (  0.0 sec)
Calculating Nuclear repulsion               ... done (  0.0 sec) ENN=   1583.235948594548 Eh

SHARK setup successfully completed in   0.4 seconds

Maximum memory used throughout the entire GTOINT-calculation: 26.7 MB


           ************************************************************
           *        Program running with 48 parallel MPI-processes    *
           *              working on a common directory               *
           ************************************************************

Diagonalization of the overlap matrix:
Smallest eigenvalue                        ... 2.020e-05
Time for diagonalization                   ...    0.028 sec
Threshold for overlap eigenvalues          ... 1.000e-08
Number of eigenvalues below threshold      ... 0
Time for construction of square roots      ...    0.031 sec
Total time needed                          ...    0.061 sec

Time for model grid setup =    0.604 sec

Loading Hartree-Fock densities                     ... done
Calculating cut-offs                               ... done
Initializing the effective Hamiltonian             ... done
Setting up the integral package (SHARK)            ... done
Starting the Coulomb interaction                   ... done (   0.1 sec)
Reading the grid                                   ... done
Mapping shells                                     ... done
Starting the XC term evaluation                    ... done (   0.2 sec)
  promolecular density results
     # of electrons  =    143.993465012
     EX              =   -127.509236085
     EC              =     -4.911654470
     EX+EC           =   -132.420890555
Transforming the Hamiltonian                       ... done (   0.0 sec)
Diagonalizing the Hamiltonian                      ... done (   0.0 sec)
Back transforming the eigenvectors                 ... done (   0.0 sec)
Now organizing SCF variables                       ... done
-------------------
DFT GRID GENERATION
-------------------

General Integration Accuracy     IntAcc      ... 4.388
Radial Grid Type                 RadialGrid  ... OptM3 with GC (2021)
Angular Grid (max. ang.)         AngularGrid ... 4 (Lebedev-302)
Angular grid pruning method      GridPruning ... 4 (adaptive)
Weight generation scheme         WeightScheme... Becke
Basis function cutoff            BFCut       ... 1.0000e-11
Integration weight cutoff        WCut        ... 1.0000e-14
Angular grids for H and He will be reduced by one unit
Partially contracted basis set               ... off
Rotationally invariant grid construction     ... off

Total number of grid points                  ...   152405
Total number of batches                      ...     2397
Average number of points per batch           ...       63
Average number of grid points per atom       ...     5080
Time for grid setup =    2.576 sec


--------------------
CPCM SOLVATION MODEL
--------------------
CPCM parameters:
  Epsilon                                         ...      78.3550
  Refrac                                          ...       1.3328
  Rsolv                                           ...       1.3000
  Surface type                                    ... GAUSSIAN VDW
  Epsilon function type                           ...         CPCM
Solvent:                                     ... WATER
SMD-CDS solvent descriptors:
  Soln                                       ...    1.3328
  Soln25                                     ...    1.3323
  Sola                                       ...    0.0000
  Solb                                       ...    0.0000
  Solg                                       ...    0.0000
  Solc                                       ...    0.0000
  Solh                                       ...    0.0000
Radii:
 Radius for C  used is    3.4960 Bohr (=   1.8500 Ang.)
 Radius for O  used is    2.8724 Bohr (=   1.5200 Ang.)
 Radius for N  used is    3.5716 Bohr (=   1.8900 Ang.)
 Radius for F  used is    3.2692 Bohr (=   1.7300 Ang.)
 Radius for H  used is    2.2677 Bohr (=   1.2000 Ang.)
Calculating surface                               ...        done! (  0.0s)
GEPOL surface points                              ...         1736
GEPOL Volume                                      ...    1717.9100
GEPOL Surface-area                                ...     975.6549
Calculating surface distance matrix               ...        done! (  0.0s)
Performing Cholesky decomposition & store         ...        done! (  0.2s)
Overall time for CPCM initialization              ...                 0.2s
--------------
SCF ITERATIONS
--------------
ITER       Energy         Delta-E        Max-DP      RMS-DP      [F,P]     Damp
               ***  Starting incremental Fock matrix formation  ***
  0  -1043.7471506330   0.000000000000 0.08467892  0.00146062  0.2565975 0.7000
  1  -1043.9485131681  -0.201362535131 0.04835048  0.00101662  0.0936212 0.7000
                               ***Turning on DIIS***
  2  -1044.0228521094  -0.074338941294 0.09827328  0.00181093  0.0333465 0.0000
  3  -1044.1466326852  -0.123780575759 0.06285307  0.00074694  0.0444338 0.0000
  4  -1044.1711708333  -0.024538148140 0.01244542  0.00029309  0.0170571 0.0000
  5  -1044.1731613050  -0.001990471639 0.01071273  0.00016232  0.0065165 0.0000
                      *** Initiating the SOSCF procedure ***
                           *** Shutting down DIIS ***
                      *** Re-Reading the Fockian *** 
                      *** Removing any level shift *** 
ITER      Energy       Delta-E        Grad      Rot      Max-DP    RMS-DP
  6  -1044.17326718  -0.0001058748  0.000324  0.000324  0.002278  0.000062
               *** Restarting incremental Fock matrix formation ***
  7  -1044.17327971  -0.0000125271  0.000192  0.000858  0.001642  0.000040
  8  -1044.17327553   0.0000041799  0.000415  0.000504  0.000693  0.000012
  9  -1044.17328227  -0.0000067469  0.000033  0.000093  0.000380  0.000005
 10  -1044.17328212   0.0000001564  0.000054  0.000068  0.000171  0.000003
 11  -1044.17328236  -0.0000002412  0.000008  0.000052  0.000122  0.000002
 12  -1044.17328236  -0.0000000022  0.000013  0.000034  0.000062  0.000001
 13  -1044.17328237  -0.0000000064  0.000003  0.000013  0.000064  0.000001
 14  -1044.17328234   0.0000000253  0.000005  0.000010  0.000025  0.000000
                  ***Gradient check signals convergence***
              ***Rediagonalizing the Fockian in SOSCF/NRSCF***

               *****************************************************
               *                     SUCCESS                       *
               *           SCF CONVERGED AFTER  15 CYCLES          *
               *****************************************************


SMD CDS free energy correction energy :                 8.02743     Kcal/mol
Total Energy after SMD CDS correction =             -1044.160489834 Eh
Total Energy       :        -1044.16048983 Eh          -28413.05142 eV
  Last Energy change         ...   -1.5293e-08  Tolerance :   1.0000e-08
  Last MAX-Density change    ...    5.6170e-05  Tolerance :   1.0000e-07
             **** THE GBW FILE WAS UPDATED (opt_3.gbw) ****
             **** DENSITY opt_3.scfp WAS UPDATED ****
             **** ENERGY FILE WAS UPDATED (opt_3.en.tmp) ****
             **** THE GBW FILE WAS UPDATED (opt_3.gbw) ****
             **** DENSITY opt_3.scfp WAS UPDATED ****
----------------
ORBITAL ENERGIES
----------------

  NO   OCC          E(Eh)            E(eV) 
   0   2.0000     -24.524216      -667.3378 
   1   2.0000     -24.519211      -667.2016 
   2   2.0000     -24.518786      -667.1901 
   3   2.0000     -19.008359      -517.2437 
   4   2.0000     -18.952229      -515.7164 
   5   2.0000     -14.198449      -386.3594 
   6   2.0000     -10.284566      -279.8573 
   7   2.0000     -10.179435      -276.9965 
   8   2.0000     -10.096558      -274.7413 
   9   2.0000     -10.092826      -274.6397 
  10   2.0000     -10.066199      -273.9152 
  11   2.0000     -10.059241      -273.7259 
  12   2.0000     -10.048396      -273.4308 
  13   2.0000     -10.048374      -273.4302 
  14   2.0000     -10.044483      -273.3243 
  15   2.0000     -10.044250      -273.3179 
  16   2.0000     -10.042708      -273.2760 
  17   2.0000     -10.041870      -273.2532 
  18   2.0000     -10.041088      -273.2319 
  19   2.0000     -10.035946      -273.0920 
  20   2.0000      -1.277910       -34.7737 
  21   2.0000      -1.189982       -32.3810 
  22   2.0000      -1.184552       -32.2333 
  23   2.0000      -1.082091       -29.4452 
  24   2.0000      -0.997991       -27.1567 
  25   2.0000      -0.938785       -25.5456 
  26   2.0000      -0.847442       -23.0601 
  27   2.0000      -0.828099       -22.5337 
  28   2.0000      -0.760419       -20.6921 
  29   2.0000      -0.743797       -20.2397 
  30   2.0000      -0.737397       -20.0656 
  31   2.0000      -0.705823       -19.2064 
  32   2.0000      -0.671954       -18.2848 
  33   2.0000      -0.628203       -17.0943 
  34   2.0000      -0.611706       -16.6454 
  35   2.0000      -0.601274       -16.3615 
  36   2.0000      -0.588976       -16.0268 
  37   2.0000      -0.579621       -15.7723 
  38   2.0000      -0.557589       -15.1728 
  39   2.0000      -0.554369       -15.0851 
  40   2.0000      -0.547063       -14.8864 
  41   2.0000      -0.520770       -14.1709 
  42   2.0000      -0.497059       -13.5257 
  43   2.0000      -0.475748       -12.9458 
  44   2.0000      -0.466443       -12.6926 
  45   2.0000      -0.452066       -12.3013 
  46   2.0000      -0.441590       -12.0163 
  47   2.0000      -0.438690       -11.9374 
  48   2.0000      -0.434302       -11.8180 
  49   2.0000      -0.432152       -11.7594 
  50   2.0000      -0.426170       -11.5967 
  51   2.0000      -0.413743       -11.2585 
  52   2.0000      -0.411459       -11.1964 
  53   2.0000      -0.404087       -10.9958 
  54   2.0000      -0.394415       -10.7326 
  55   2.0000      -0.384128       -10.4527 
  56   2.0000      -0.382910       -10.4195 
  57   2.0000      -0.375907       -10.2290 
  58   2.0000      -0.373774       -10.1709 
  59   2.0000      -0.370446       -10.0803 
  60   2.0000      -0.354417        -9.6442 
  61   2.0000      -0.345814        -9.4101 
  62   2.0000      -0.334986        -9.1154 
  63   2.0000      -0.332371        -9.0443 
  64   2.0000      -0.326223        -8.8770 
  65   2.0000      -0.312083        -8.4922 
  66   2.0000      -0.301812        -8.2127 
  67   2.0000      -0.271514        -7.3883 
  68   2.0000      -0.255014        -6.9393 
  69   2.0000      -0.252294        -6.8653 
  70   2.0000      -0.246421        -6.7055 
  71   2.0000      -0.192952        -5.2505 
  72   0.0000      -0.077720        -2.1149 
  73   0.0000      -0.057238        -1.5575 
  74   0.0000      -0.045636        -1.2418 
  75   0.0000      -0.022040        -0.5997 
  76   0.0000      -0.000993        -0.0270 
  77   0.0000       0.057275         1.5585 
  78   0.0000       0.080840         2.1998 
  79   0.0000       0.084256         2.2927 
  80   0.0000       0.089555         2.4369 
  81   0.0000       0.095990         2.6120 
  82   0.0000       0.100128         2.7246 
  83   0.0000       0.106558         2.8996 
  84   0.0000       0.109044         2.9672 
  85   0.0000       0.122307         3.3281 
  86   0.0000       0.133015         3.6195 
  87   0.0000       0.134240         3.6529 
  88   0.0000       0.137673         3.7463 
  89   0.0000       0.147486         4.0133 
  90   0.0000       0.148806         4.0492 
  91   0.0000       0.160794         4.3754 
  92   0.0000       0.162992         4.4352 
  93   0.0000       0.173524         4.7218 
  94   0.0000       0.181896         4.9496 
  95   0.0000       0.183279         4.9873 
  96   0.0000       0.191406         5.2084 
  97   0.0000       0.195493         5.3196 
  98   0.0000       0.202806         5.5186 
  99   0.0000       0.208121         5.6633 
 100   0.0000       0.212099         5.7715 
 101   0.0000       0.212956         5.7948 
 102   0.0000       0.219087         5.9617 
 103   0.0000       0.221182         6.0187 
 104   0.0000       0.226036         6.1507 
 105   0.0000       0.240461         6.5433 
 106   0.0000       0.243073         6.6144 
 107   0.0000       0.248199         6.7538 
 108   0.0000       0.251181         6.8350 
 109   0.0000       0.255402         6.9499 
 110   0.0000       0.262310         7.1378 
 111   0.0000       0.266486         7.2514 
 112   0.0000       0.272158         7.4058 
 113   0.0000       0.276431         7.5221 
 114   0.0000       0.283523         7.7151 
 115   0.0000       0.290293         7.8993 
 116   0.0000       0.293099         7.9756 
 117   0.0000       0.296163         8.0590 
 118   0.0000       0.301346         8.2000 
 119   0.0000       0.308203         8.3866 
 120   0.0000       0.313689         8.5359 
 121   0.0000       0.324754         8.8370 
 122   0.0000       0.329827         8.9751 
 123   0.0000       0.336490         9.1564 
 124   0.0000       0.338271         9.2048 
 125   0.0000       0.351722         9.5708 
 126   0.0000       0.354428         9.6445 
 127   0.0000       0.363379         9.8881 
 128   0.0000       0.370479        10.0813 
 129   0.0000       0.373759        10.1705 
 130   0.0000       0.377183        10.2637 
 131   0.0000       0.385476        10.4893 
 132   0.0000       0.392987        10.6937 
 133   0.0000       0.407037        11.0760 
 134   0.0000       0.416008        11.3201 
 135   0.0000       0.422737        11.5033 
 136   0.0000       0.427305        11.6276 
 137   0.0000       0.439341        11.9551 
 138   0.0000       0.451174        12.2771 
 139   0.0000       0.455459        12.3937 
 140   0.0000       0.469829        12.7847 
 141   0.0000       0.473322        12.8797 
 142   0.0000       0.476586        12.9686 
 143   0.0000       0.490746        13.3539 
 144   0.0000       0.496955        13.5228 
 145   0.0000       0.498310        13.5597 
 146   0.0000       0.500425        13.6172 
 147   0.0000       0.511114        13.9081 
 148   0.0000       0.520464        14.1625 
 149   0.0000       0.529926        14.4200 
 150   0.0000       0.539545        14.6818 
 151   0.0000       0.541414        14.7326 
 152   0.0000       0.544924        14.8281 
 153   0.0000       0.547016        14.8851 
 154   0.0000       0.554855        15.0984 
 155   0.0000       0.555492        15.1157 
 156   0.0000       0.567702        15.4480 
 157   0.0000       0.575344        15.6559 
 158   0.0000       0.577009        15.7012 
 159   0.0000       0.586233        15.9522 
 160   0.0000       0.591715        16.1014 
 161   0.0000       0.602473        16.3941 
 162   0.0000       0.609022        16.5723 
 163   0.0000       0.613034        16.6815 
 164   0.0000       0.618830        16.8392 
 165   0.0000       0.621112        16.9013 
 166   0.0000       0.633613        17.2415 
 167   0.0000       0.634789        17.2735 
 168   0.0000       0.648506        17.6467 
 169   0.0000       0.651032        17.7155 
 170   0.0000       0.656619        17.8675 
 171   0.0000       0.659498        17.9459 
 172   0.0000       0.666117        18.1260 
 173   0.0000       0.671325        18.2677 
 174   0.0000       0.678859        18.4727 
 175   0.0000       0.685853        18.6630 
 176   0.0000       0.693538        18.8721 
 177   0.0000       0.699556        19.0359 
 178   0.0000       0.704119        19.1600 
 179   0.0000       0.713613        19.4184 
 180   0.0000       0.720675        19.6106 
 181   0.0000       0.728877        19.8338 
 182   0.0000       0.736719        20.0472 
 183   0.0000       0.747689        20.3457 
 184   0.0000       0.753742        20.5104 
 185   0.0000       0.765971        20.8431 
 186   0.0000       0.767342        20.8804 
 187   0.0000       0.775379        21.0991 
 188   0.0000       0.786407        21.3992 
 189   0.0000       0.792396        21.5622 
 190   0.0000       0.808335        21.9959 
 191   0.0000       0.810161        22.0456 
 192   0.0000       0.826273        22.4840 
 193   0.0000       0.851138        23.1606 
 194   0.0000       0.863410        23.4946 
 195   0.0000       0.872493        23.7417 
 196   0.0000       0.876277        23.8447 
 197   0.0000       0.896465        24.3941 
 198   0.0000       0.904798        24.6208 
 199   0.0000       0.921814        25.0838 
 200   0.0000       0.938581        25.5401 
 201   0.0000       0.951444        25.8901 
 202   0.0000       0.962800        26.1991 
 203   0.0000       0.975798        26.5528 
 204   0.0000       0.985060        26.8049 
 205   0.0000       0.990241        26.9458 
 206   0.0000       1.003806        27.3149 
 207   0.0000       1.021227        27.7890 
 208   0.0000       1.035402        28.1747 
 209   0.0000       1.053231        28.6599 
 210   0.0000       1.065811        29.0022 
 211   0.0000       1.083248        29.4767 
 212   0.0000       1.095728        29.8163 
 213   0.0000       1.119006        30.4497 
 214   0.0000       1.134389        30.8683 
 215   0.0000       1.156897        31.4808 
 216   0.0000       1.164680        31.6925 
 217   0.0000       1.177032        32.0287 
 218   0.0000       1.193351        32.4727 
 219   0.0000       1.207352        32.8537 
 220   0.0000       1.219297        33.1788 
 221   0.0000       1.242520        33.8107 
 222   0.0000       1.257135        34.2084 
 223   0.0000       1.274886        34.6914 
 224   0.0000       1.283030        34.9130 
 225   0.0000       1.294498        35.2251 
 226   0.0000       1.310083        35.6492 
 227   0.0000       1.315648        35.8006 
 228   0.0000       1.324893        36.0522 
 229   0.0000       1.333631        36.2899 
 230   0.0000       1.338353        36.4184 
 231   0.0000       1.350752        36.7558 
 232   0.0000       1.353833        36.8397 
 233   0.0000       1.365116        37.1467 
 234   0.0000       1.379278        37.5321 
 235   0.0000       1.385899        37.7122 
 236   0.0000       1.395529        37.9743 
 237   0.0000       1.403318        38.1862 
 238   0.0000       1.410571        38.3836 
 239   0.0000       1.413068        38.4515 
 240   0.0000       1.423737        38.7419 
 241   0.0000       1.436373        39.0857 
 242   0.0000       1.445038        39.3215 
 243   0.0000       1.453488        39.5514 
 244   0.0000       1.458185        39.6792 
 245   0.0000       1.461556        39.7710 
 246   0.0000       1.468976        39.9729 
 247   0.0000       1.472734        40.0751 
 248   0.0000       1.478096        40.2210 
 249   0.0000       1.491554        40.5873 
 250   0.0000       1.494471        40.6666 
 251   0.0000       1.499206        40.7955 
 252   0.0000       1.500388        40.8276 
 253   0.0000       1.515445        41.2374 
 254   0.0000       1.516551        41.2675 
 255   0.0000       1.529995        41.6333 
 256   0.0000       1.533090        41.7175 
 257   0.0000       1.542700        41.9790 
 258   0.0000       1.547783        42.1173 
 259   0.0000       1.558133        42.3990 
 260   0.0000       1.560573        42.4654 
 261   0.0000       1.573420        42.8149 
 262   0.0000       1.578431        42.9513 
 263   0.0000       1.581590        43.0372 
 264   0.0000       1.593357        43.3574 
 265   0.0000       1.601447        43.5776 
 266   0.0000       1.609511        43.7970 
 267   0.0000       1.623276        44.1716 
 268   0.0000       1.631008        44.3820 
 269   0.0000       1.638278        44.5798 
 270   0.0000       1.649298        44.8797 
 271   0.0000       1.655975        45.0614 
 272   0.0000       1.664705        45.2989 
 273   0.0000       1.669009        45.4160 
 274   0.0000       1.704977        46.3948 
 275   0.0000       1.712639        46.6033 
 276   0.0000       1.727451        47.0063 
 277   0.0000       1.732623        47.1471 
 278   0.0000       1.757589        47.8264 
 279   0.0000       1.761493        47.9326 
 280   0.0000       1.780712        48.4556 
 281   0.0000       1.784466        48.5578 
 282   0.0000       1.790903        48.7329 
 283   0.0000       1.828218        49.7483 
 284   0.0000       1.844643        50.1953 
 285   0.0000       1.896309        51.6012 
 286   0.0000       1.909790        51.9680 
 287   0.0000       1.930560        52.5332 
 288   0.0000       1.939606        52.7794 
 289   0.0000       1.960630        53.3514 
 290   0.0000       1.970256        53.6134 
 291   0.0000       1.993282        54.2400 
 292   0.0000       2.005835        54.5816 
 293   0.0000       2.013760        54.7972 
 294   0.0000       2.027006        55.1576 
 295   0.0000       2.047803        55.7235 
 296   0.0000       2.050876        55.8072 
 297   0.0000       2.057971        56.0002 
 298   0.0000       2.061565        56.0980 
 299   0.0000       2.072744        56.4022 
 300   0.0000       2.081793        56.6485 
 301   0.0000       2.085843        56.7587 
 302   0.0000       2.092739        56.9463 
 303   0.0000       2.096444        57.0471 
 304   0.0000       2.118709        57.6530 
 305   0.0000       2.128449        57.9180 
 306   0.0000       2.144652        58.3590 
 307   0.0000       2.174875        59.1814 
 308   0.0000       2.182464        59.3879 
 309   0.0000       2.203395        59.9574 
 310   0.0000       2.217410        60.3388 
 311   0.0000       2.224195        60.5234 
 312   0.0000       2.238623        60.9160 
 313   0.0000       2.243508        61.0489 
 314   0.0000       2.255237        61.3681 
 315   0.0000       2.259781        61.4918 
 316   0.0000       2.270777        61.7910 
 317   0.0000       2.274313        61.8872 
 318   0.0000       2.285699        62.1970 
 319   0.0000       2.293314        62.4042 
 320   0.0000       2.301896        62.6378 
 321   0.0000       2.306196        62.7548 
 322   0.0000       2.314722        62.9868 
 323   0.0000       2.322276        63.1923 
 324   0.0000       2.328995        63.3752 
 325   0.0000       2.340418        63.6860 
 326   0.0000       2.358112        64.1675 
 327   0.0000       2.361579        64.2618 
 328   0.0000       2.368085        64.4389 
 329   0.0000       2.373450        64.5848 
 330   0.0000       2.381681        64.8088 
 331   0.0000       2.386726        64.9461 
 332   0.0000       2.391028        65.0632 
 333   0.0000       2.392022        65.0902 
 334   0.0000       2.406863        65.4941 
 335   0.0000       2.420380        65.8619 
 336   0.0000       2.436748        66.3073 
 337   0.0000       2.443214        66.4832 
 338   0.0000       2.463264        67.0288 
 339   0.0000       2.474472        67.3338 
 340   0.0000       2.484420        67.6045 
 341   0.0000       2.508282        68.2538 
 342   0.0000       2.508404        68.2571 
 343   0.0000       2.522787        68.6485 
 344   0.0000       2.551213        69.4220 
 345   0.0000       2.569656        69.9239 
 346   0.0000       2.589005        70.4504 
 347   0.0000       2.619422        71.2781 
 348   0.0000       2.629092        71.5412 
 349   0.0000       2.637413        71.7677 
 350   0.0000       2.657614        72.3173 
 351   0.0000       2.673884        72.7601 
 352   0.0000       2.686700        73.1088 
 353   0.0000       2.697881        73.4131 
 354   0.0000       2.706541        73.6487 
 355   0.0000       2.714516        73.8657 
 356   0.0000       2.734192        74.4012 
 357   0.0000       2.746499        74.7360 
 358   0.0000       2.750188        74.8364 
 359   0.0000       2.762907        75.1825 
 360   0.0000       2.791922        75.9721 
 361   0.0000       2.805572        76.3435 
 362   0.0000       2.815648        76.6177 
 363   0.0000       2.830850        77.0313 
 364   0.0000       2.840081        77.2825 
 365   0.0000       2.865370        77.9707 
 366   0.0000       2.875077        78.2348 
 367   0.0000       2.906185        79.0813 
 368   0.0000       2.930494        79.7428 
 369   0.0000       2.934352        79.8478 
 370   0.0000       2.960657        80.5636 
 371   0.0000       2.971156        80.8493 
 372   0.0000       2.988425        81.3192 
 373   0.0000       2.989677        81.3533 
 374   0.0000       3.002055        81.6901 
 375   0.0000       3.059656        83.2575 
 376   0.0000       3.086097        83.9770 
 377   0.0000       3.105063        84.4931 
 378   0.0000       3.115532        84.7779 
 379   0.0000       3.132302        85.2343 
 380   0.0000       3.134937        85.3060 
 381   0.0000       3.153445        85.8096 
 382   0.0000       3.176893        86.4477 
 383   0.0000       3.189088        86.7795 
 384   0.0000       3.217570        87.5545 
 385   0.0000       3.224740        87.7496 
 386   0.0000       3.238257        88.1175 
 387   0.0000       3.241764        88.2129 
 388   0.0000       3.262108        88.7665 
 389   0.0000       3.263988        88.8176 
 390   0.0000       3.270892        89.0055 
 391   0.0000       3.287115        89.4469 
 392   0.0000       3.291716        89.5722 
 393   0.0000       3.301071        89.8267 
 394   0.0000       3.306825        89.9833 
 395   0.0000       3.312314        90.1327 
 396   0.0000       3.323699        90.4425 
 397   0.0000       3.330728        90.6337 
 398   0.0000       3.337853        90.8276 
 399   0.0000       3.341626        90.9303 
 400   0.0000       3.347485        91.0897 
 401   0.0000       3.368619        91.6648 
 402   0.0000       3.375635        91.8557 
 403   0.0000       3.400591        92.5348 
 404   0.0000       3.410344        92.8002 
 405   0.0000       3.414268        92.9070 
 406   0.0000       3.422655        93.1352 
 407   0.0000       3.438192        93.5580 
 408   0.0000       3.454958        94.0142 
 409   0.0000       3.458085        94.0993 
 410   0.0000       3.466861        94.3381 
 411   0.0000       3.476600        94.6031 
 412   0.0000       3.489026        94.9412 
 413   0.0000       3.498947        95.2112 
 414   0.0000       3.521783        95.8326 
 415   0.0000       3.537768        96.2676 
 416   0.0000       3.558539        96.8328 
 417   0.0000       3.604167        98.0744 
 418   0.0000       3.626648        98.6861 
 419   0.0000       3.630132        98.7809 
 420   0.0000       3.643685        99.1497 
 421   0.0000       3.646237        99.2191 
 422   0.0000       3.686908       100.3259 
 423   0.0000       3.718862       101.1954 
 424   0.0000       3.749721       102.0351 
 425   0.0000       3.781996       102.9134 
 426   0.0000       3.837088       104.4125 
 427   0.0000       3.857457       104.9668 
 428   0.0000       4.003440       108.9391 
 429   0.0000       4.091609       111.3384 
 430   0.0000       4.107279       111.7647 
 431   0.0000       4.139901       112.6524 
 432   0.0000       4.152262       112.9888 
 433   0.0000       4.174274       113.5878 
 434   0.0000       4.264540       116.0440 
 435   0.0000       4.418522       120.2341 
 436   0.0000       4.518636       122.9583 
 437   0.0000       4.589173       124.8778 
 438   0.0000       4.712147       128.2240 
 439   0.0000       4.803900       130.7208 
 440   0.0000      21.476817       584.4139 
 441   0.0000      21.539792       586.1275 
 442   0.0000      21.926648       596.6544 
 443   0.0000      21.976037       597.9984 
 444   0.0000      22.045456       599.8874 
 445   0.0000      22.098187       601.3222 
 446   0.0000      22.105340       601.5169 
 447   0.0000      22.201816       604.1421 
 448   0.0000      22.240163       605.1856 
 449   0.0000      22.255790       605.6108 
 450   0.0000      22.269955       605.9963 
 451   0.0000      22.360132       608.4501 
 452   0.0000      22.382957       609.0712 
 453   0.0000      22.428483       610.3100 
 454   0.0000      32.089331       873.1951 
 455   0.0000      43.731179      1189.9859 
 456   0.0000      43.782439      1191.3807 
 457   0.0000      57.215772      1556.9203 
 458   0.0000      57.251893      1557.9032 
 459   0.0000      57.303541      1559.3086 
Total SCF time: 0 days 0 hours 1 min 3 sec 

Maximum memory used throughout the entire SCF-calculation: 87.8 MB


-------------------------------------------------------------------------------
                          DFT DISPERSION CORRECTION                            
                                                                               
                                 DFTD4 V2.5                                    
-------------------------------------------------------------------------------
Starting D4
-------------------------   ----------------
Dispersion correction           -0.014531671
-------------------------   ----------------

------------------   -----------------
gCP correction             0.016849055
------------------   -----------------

-------------------------   --------------------
FINAL SINGLE POINT ENERGY     -1044.158172449743
-------------------------   --------------------



           ************************************************************
           *        Program running with 48 parallel MPI-processes    *
           *              working on a common directory               *
           ************************************************************
------------------------------------------------------------------------------
                         ORCA SCF GRADIENT CALCULATION
------------------------------------------------------------------------------

Gradient of the Kohn-Sham DFT energy:
Kohn-Sham wavefunction type      ... RKS
Hartree-Fock exchange scaling    ...    0.000
Number of operators              ...    1
Number of atoms                  ...   30
Basis set dimensions             ...  460
Integral neglect threshold       ... 2.5e-11
Integral primitive cutoff        ... 2.5e-12
SHARK Integral package           ... ON

Nuc. rep. gradient       (SHARK) ... done (  0.0 sec)
HCore & Overlap gradient (SHARK) ... done (  0.1 sec)
RI-J gradient            (SHARK) ... done (  0.3 sec)
Exchange-correlation gradient    ... done
Dispersion correction            ... Starting D4
Starting D4
Starting D4
Starting D4
Starting D4
Starting D4
Starting D4
Starting D4
Starting D4
Starting D4
Starting D4
Starting D4
Starting D4
Starting D4
Starting D4
Starting D4
Starting D4
Starting D4
Starting D4
Starting D4
Starting D4
Starting D4
Starting D4
Starting D4
Starting D4


------------------- 
Dispersion Gradient 
------------------- 
   1  :    0.000100034    0.000111437   -0.000018569
   2  :    0.000103956    0.000072183   -0.000078099
   3  :    0.000115432    0.000025194   -0.000123027
   4  :    0.000102715    0.000003943   -0.000056836
   5  :    0.000093959    0.000052628    0.000055928
   6  :    0.000092607    0.000116625    0.000052878
   7  :    0.000063829    0.000021064    0.000165877
   8  :    0.000027377    0.000068919    0.000171618
   9  :    0.000086940   -0.000065854    0.000136245
  10  :    0.000068383   -0.000100593   -0.000097230
  11  :   -0.000017899   -0.000107836   -0.000066920
  12  :   -0.000039970   -0.000161535   -0.000068037
  13  :   -0.000080982   -0.000144608   -0.000034291
  14  :   -0.000125001   -0.000090029   -0.000013113
  15  :   -0.000156225   -0.000006392   -0.000015002
  16  :   -0.000085426   -0.000007434   -0.000040360
  17  :   -0.000125972    0.000052310    0.000009800
  18  :   -0.000082021    0.000040190    0.000062148
  19  :   -0.000074399    0.000093131   -0.000006150
  20  :   -0.000077849    0.000036358   -0.000006033
  21  :    0.000026456    0.000039984    0.000000036
  22  :    0.000029113    0.000019788   -0.000030652
  23  :    0.000033807   -0.000004997   -0.000058665
  24  :    0.000019026    0.000046778    0.000038843
  25  :    0.000020755   -0.000030433    0.000070513
  26  :    0.000021759   -0.000036231   -0.000040099
  27  :    0.000001340   -0.000065480   -0.000024861
  28  :   -0.000021891   -0.000049644   -0.000005012
  29  :   -0.000045804   -0.000021445    0.000006907
  30  :   -0.000038934    0.000042200   -0.000010014

  |G| =    0.005278862

Starting D4
Starting D4
Starting D4
Starting D4
Starting D4
Starting D4
Starting D4
Starting D4
Starting D4
Starting D4
Starting D4
Starting D4
Starting D4
Starting D4
Starting D4
Starting D4
Starting D4
Starting D4
Starting D4
Starting D4
Starting D4
Starting D4
Starting D4
done
gCP correction                   ... done

------------------
CARTESIAN GRADIENT
------------------

   1   C   :   -0.000558631   -0.002383076   -0.001919123
   2   C   :   -0.000654645   -0.000126765   -0.000897655
   3   C   :    0.000409457    0.001854014    0.002077600
   4   C   :   -0.001256044   -0.000729561   -0.002165291
   5   C   :    0.002561172    0.001056917   -0.000967248
   6   C   :    0.002554512    0.000953805   -0.000367267
   7   C   :   -0.009937965   -0.005423622    0.010063320
   8   O   :    0.005902217   -0.003358797   -0.007451757
   9   O   :    0.000361992    0.013203498   -0.008008144
  10   N   :   -0.006744047    0.002824530    0.004832802
  11   C   :    0.006213900    0.000659145   -0.000329311
  12   C   :   -0.003220119   -0.000048379    0.000370132
  13   C   :    0.002903668   -0.001284381   -0.000653066
  14   C   :    0.001813089   -0.002905669   -0.000887691
  15   C   :    0.000437645   -0.001444414    0.000145682
  16   C   :    0.001532004   -0.002380613    0.000374559
  17   C   :    0.006764773   -0.003693509    0.000032249
  18   F   :   -0.002729633    0.003941749   -0.009981700
  19   F   :   -0.009341821   -0.005511607    0.003013912
  20   F   :    0.005725638    0.005170739    0.006048481
  21   H   :   -0.003118505   -0.004556987   -0.000789544
  22   H   :   -0.002824097   -0.001093229    0.003986008
  23   H   :    0.000634174    0.003097146    0.004847605
  24   H   :   -0.000782904   -0.002955563   -0.003958499
  25   H   :    0.002794385   -0.004922278    0.000392243
  26   H   :   -0.000506774    0.000720238    0.000322618
  27   H   :   -0.004173249    0.004361996    0.001608654
  28   H   :    0.001325393    0.005267641    0.000708902
  29   H   :    0.005259653    0.002290389   -0.001313899
  30   H   :   -0.001310121   -0.002633138    0.000843250

Difference to translation invariance:
           :    0.0000351134   -0.0000497783   -0.0000221760

Difference to rotation invariance:
           :    0.0003000246    0.0003856688    0.0006247052

Norm of the cartesian gradient     ...    0.0379094900
RMS gradient                       ...    0.0039960111
MAX gradient                       ...    0.0132034982

-------
TIMINGS
-------

Total SCF gradient time            ...        3.818 sec

One electron gradient       ....       0.056 sec  (  1.5%)
RI-J Coulomb gradient       ....       0.259 sec  (  6.8%)
XC gradient                 ....       1.828 sec  ( 47.9%)
CPCM gradient               ....       0.264 sec  (  6.9%)
   A-Matrix (El+Nuc)        ....       0.111 sec  (  2.9%)
   Potential                ....       0.153 sec  (  4.0%)

Maximum memory used throughout the entire SCFGRAD-calculation: 53.2 MB
------------------------------------------------------------------------------
                         ORCA GEOMETRY RELAXATION STEP
------------------------------------------------------------------------------

Reading the OPT-File                    .... done
Getting information on internals        .... done
Copying old internal coords+grads       .... done
Making the new internal coordinates     .... (new redundants).... done
Validating the new internal coordinates .... (new redundants).... done
Calculating the B-matrix                .... done
Calculating the G,G- and P matrices     .... done
Transforming gradient to internals      .... done
Projecting the internal gradient        .... done
Number of atoms                         ....  30
Number of internal coordinates          .... 148
Current Energy                          .... -1044.158172450 Eh
Current gradient norm                   ....     0.037909490 Eh/bohr
Maximum allowed component of the step   ....  0.300
Current trust radius                    ....  0.300
Evaluating the initial hessian          ....  (Almloef) done
Projecting the Hessian                  .... done
Forming the augmented Hessian           .... done
Diagonalizing the augmented Hessian     .... done
Last element of RFO vector              ....  0.977278715
Lowest eigenvalues of augmented Hessian:
 -0.005126083  0.013171103  0.013355597  0.020343273  0.021667590
Length of the computed step             ....  0.216886217
The final length of the internal step   ....  0.216886217
Converting the step to cartesian space:
 Initial RMS(Int)=    0.0178279372
Transforming coordinates:
 Iter   0:  RMS(Cart)=    0.1395255922 RMS(Int)=    0.0180904019
 Iter   1:  RMS(Cart)=    0.0046206686 RMS(Int)=    0.0022389549
 Iter   2:  RMS(Cart)=    0.0004018735 RMS(Int)=    0.0001165736
 Iter   3:  RMS(Cart)=    0.0000353226 RMS(Int)=    0.0000252760
 Iter   4:  RMS(Cart)=    0.0000039512 RMS(Int)=    0.0000020894
 Iter   5:  RMS(Cart)=    0.0000004803 RMS(Int)=    0.0000003944
 Iter   6:  RMS(Cart)=    0.0000000618 RMS(Int)=    0.0000000387
done
Storing new coordinates                 .... done

                                .--------------------.
          ----------------------|Geometry convergence|-------------------------
          Item                value                   Tolerance       Converged
          ---------------------------------------------------------------------
          RMS gradient        0.0036891371            0.0001000000      NO
          MAX gradient        0.0110230027            0.0003000000      NO
          RMS step            0.0178279372            0.0020000000      NO
          MAX step            0.0830169494            0.0040000000      NO
          ........................................................
          Max(Bonds)      0.0101      Max(Angles)    1.33
          Max(Dihed)        4.76      Max(Improp)    0.00
          ---------------------------------------------------------------------

The optimization has not yet converged - more geometry cycles are needed


    ---------------------------------------------------------------------------
                         Redundant Internal Coordinates
                            (Angstroem and degrees)

        Definition                    Value    dE/dq     Step     New-Value
    ----------------------------------------------------------------------------
     1. B(C   1,C   0)                1.3878 -0.006318  0.0052    1.3930   
     2. B(C   2,C   1)                1.3800 -0.006328  0.0051    1.3851   
     3. B(C   3,C   2)                1.3953 -0.005015  0.0043    1.3997   
     4. B(C   4,C   3)                1.4063 -0.009127  0.0082    1.4144   
     5. B(C   5,C   4)                1.3936 -0.005552  0.0047    1.3983   
     6. B(C   5,C   0)                1.3810 -0.004997  0.0041    1.3851   
     7. B(C   6,C   4)                1.4860 -0.003293  0.0039    1.4899   
     8. B(O   7,C   6)                1.2134 -0.009551  0.0047    1.2181   
     9. B(O   8,C   6)                1.3346 -0.009572  0.0073    1.3419   
    10. B(N   9,C   3)                1.3896 -0.007436  0.0070    1.3966   
    11. B(C  10,N   9)                1.3839 -0.011023  0.0101    1.3940   
    12. B(C  11,C  10)                1.3984 -0.004145  0.0036    1.4020   
    13. B(C  12,C  11)                1.3789 -0.008037  0.0066    1.3854   
    14. B(C  13,C  12)                1.3858 -0.005809  0.0049    1.3907   
    15. B(C  14,C  13)                1.3892 -0.004437  0.0037    1.3929   
    16. B(C  15,C  14)                1.3851 -0.004597  0.0037    1.3888   
    17. B(C  15,C  10)                1.3952 -0.004873  0.0041    1.3993   
    18. B(C  16,C  14)                1.4949 -0.000582  0.0007    1.4956   
    19. B(F  17,C  16)                1.3533 -0.009567  0.0084    1.3617   
    20. B(F  18,C  16)                1.3437 -0.008958  0.0076    1.3513   
    21. B(F  19,C  16)                1.3538 -0.007768  0.0069    1.3607   
    22. B(H  20,C   0)                1.0775 -0.005572  0.0077    1.0852   
    23. B(H  21,C   1)                1.0790 -0.004960  0.0069    1.0859   
    24. B(H  22,C   2)                1.0791 -0.005685  0.0079    1.0870   
    25. B(H  23,C   5)                1.0793 -0.004804  0.0067    1.0860   
    26. B(H  24,O   8)                0.9754  0.004036 -0.0043    0.9711   
    27. B(H  25,N   9)                1.0112 -0.000843  0.0010    1.0122   
    28. B(H  26,C  11)                1.0784 -0.006206  0.0086    1.0871   
    29. B(H  27,C  12)                1.0779 -0.005417  0.0075    1.0855   
    30. B(H  28,C  13)                1.0773 -0.005714  0.0079    1.0852   
    31. B(H  29,C  15)                1.0792 -0.002901  0.0040    1.0832   
    32. A(C   5,C   0,H  20)          120.00 -0.000626    0.09    120.09   
    33. A(C   1,C   0,H  20)          120.54 -0.000483    0.07    120.61   
    34. A(C   1,C   0,C   5)          119.45  0.001111   -0.16    119.29   
    35. A(C   0,C   1,C   2)          120.36 -0.000794    0.11    120.46   
    36. A(C   2,C   1,H  21)          119.71  0.001087   -0.16    119.54   
    37. A(C   0,C   1,H  21)          119.93 -0.000290    0.05    119.98   
    38. A(C   1,C   2,C   3)          120.99 -0.000193    0.03    121.02   
    39. A(C   1,C   2,H  22)          119.95 -0.000800    0.13    120.08   
    40. A(C   3,C   2,H  22)          119.06  0.000996   -0.16    118.90   
    41. A(C   2,C   3,C   4)          118.47  0.000630   -0.08    118.39   
    42. A(C   4,C   3,N   9)          122.08 -0.008272    1.10    123.19   
    43. A(C   2,C   3,N   9)          119.42  0.007651   -1.04    118.38   
    44. A(C   3,C   4,C   5)          119.73  0.000696   -0.11    119.62   
    45. A(C   5,C   4,C   6)          117.02  0.005927   -0.85    116.17   
    46. A(C   3,C   4,C   6)          123.23 -0.006600    0.90    124.14   
    47. A(C   0,C   5,C   4)          120.82 -0.001429    0.19    121.01   
    48. A(C   4,C   5,H  23)          117.98 -0.000585    0.10    118.08   
    49. A(C   0,C   5,H  23)          121.18  0.002030   -0.32    120.86   
    50. A(C   4,C   6,O   8)          117.08 -0.004109    0.51    117.59   
    51. A(O   7,C   6,O   8)          119.81  0.005719   -0.72    119.09   
    52. A(C   4,C   6,O   7)          123.04 -0.001588    0.15    123.19   
    53. A(C   6,O   8,H  24)          113.49  0.006960   -1.05    112.44   
    54. A(C   3,N   9,C  10)          126.10 -0.005761    0.76    126.86   
    55. A(C  10,N   9,H  25)          115.20  0.003334   -0.56    114.64   
    56. A(C   3,N   9,H  25)          115.25  0.002296   -0.39    114.86   
    57. A(N   9,C  10,C  11)          118.92  0.002381   -0.32    118.60   
    58. A(C  11,C  10,C  15)          118.87  0.000050   -0.02    118.86   
    59. A(N   9,C  10,C  15)          122.21 -0.002426    0.33    122.53   
    60. A(C  12,C  11,H  26)          119.91 -0.000996    0.14    120.05   
    61. A(C  10,C  11,H  26)          119.31  0.000285   -0.06    119.25   
    62. A(C  10,C  11,C  12)          120.78  0.000711   -0.08    120.69   
    63. A(C  13,C  12,H  27)          119.48 -0.000497    0.07    119.55   
    64. A(C  11,C  12,H  27)          119.90  0.001190   -0.19    119.71   
    65. A(C  11,C  12,C  13)          120.61 -0.000691    0.12    120.73   
    66. A(C  14,C  13,H  28)          120.02 -0.002224    0.33    120.35   
    67. A(C  12,C  13,H  28)          121.42  0.000632   -0.12    121.30   
    68. A(C  12,C  13,C  14)          118.55  0.001590   -0.21    118.35   
    69. A(C  15,C  14,C  16)          119.57  0.001561   -0.21    119.36   
    70. A(C  13,C  14,C  16)          118.78 -0.000289    0.05    118.83   
    71. A(C  13,C  14,C  15)          121.64 -0.001269    0.15    121.79   
    72. A(C  14,C  15,H  29)          119.48 -0.000423    0.08    119.56   
    73. A(C  10,C  15,H  29)          121.06  0.000804   -0.11    120.95   
    74. A(C  10,C  15,C  14)          119.45 -0.000381    0.03    119.48   
    75. A(F  18,C  16,F  19)          105.51 -0.008844    1.33    106.84   
    76. A(F  17,C  16,F  19)          104.88 -0.007554    1.17    106.05   
    77. A(C  14,C  16,F  19)          112.84  0.006049   -0.69    112.16   
    78. A(F  17,C  16,F  18)          105.88 -0.006341    0.63    106.51   
    79. A(C  14,C  16,F  18)          114.25  0.007964   -1.17    113.08   
    80. A(C  14,C  16,F  17)          112.69  0.006091   -0.91    111.77   
    81. D(C   2,C   1,C   0,H  20)   -178.31  0.000126   -0.36   -178.67   
    82. D(H  21,C   1,C   0,H  20)      0.55  0.000299   -0.54      0.01   
    83. D(C   2,C   1,C   0,C   5)      2.18 -0.000118    0.13      2.31   
    84. D(H  21,C   1,C   0,C   5)   -178.95  0.000055   -0.05   -179.01   
    85. D(H  22,C   2,C   1,C   0)    178.15  0.000380   -0.52    177.63   
    86. D(H  22,C   2,C   1,H  21)     -0.71  0.000222   -0.35     -1.06   
    87. D(C   3,C   2,C   1,C   0)     -1.04  0.000097   -0.08     -1.12   
    88. D(C   3,C   2,C   1,H  21)   -179.91 -0.000060    0.10   -179.80   
    89. D(N   9,C   3,C   2,H  22)      0.05 -0.000354    0.85      0.90   
    90. D(N   9,C   3,C   2,C   1)    179.25 -0.000088    0.40    179.66   
    91. D(C   4,C   3,C   2,H  22)    178.29 -0.000178    0.28    178.57   
    92. D(C   4,C   3,C   2,C   1)     -2.51  0.000088   -0.16     -2.67   
    93. D(C   6,C   4,C   3,C   2)   -173.43 -0.001351    2.51   -170.92   
    94. D(C   5,C   4,C   3,N   9)   -176.90  0.000250   -0.28   -177.18   
    95. D(C   5,C   4,C   3,C   2)      4.92 -0.000231    0.34      5.25   
    96. D(C   6,C   4,C   3,N   9)      4.76 -0.000870    1.89      6.65   
    97. D(H  23,C   5,C   4,C   6)     -3.85  0.000410   -1.13     -4.98   
    98. D(C   0,C   5,C   4,C   6)    174.58  0.001128   -2.31    172.27   
    99. D(C   0,C   5,C   4,C   3)     -3.87  0.000275   -0.30     -4.17   
   100. D(H  23,C   5,C   0,H  20)     -0.84  0.000336   -0.66     -1.50   
   101. D(H  23,C   5,C   0,C   1)    178.67  0.000579   -1.15    177.52   
   102. D(H  23,C   5,C   4,C   3)    177.70 -0.000443    0.88    178.59   
   103. D(C   4,C   5,C   0,H  20)   -179.22 -0.000362    0.55   -178.67   
   104. D(C   4,C   5,C   0,C   1)      0.29 -0.000119    0.07      0.35   
   105. D(O   8,C   6,C   4,C   5)   -133.86 -0.000590    0.93   -132.93   
   106. D(O   8,C   6,C   4,C   3)     44.53  0.000428   -1.18     43.36   
   107. D(O   7,C   6,C   4,C   5)     43.21  0.000077   -0.41     42.80   
   108. D(O   7,C   6,C   4,C   3)   -138.40  0.001095   -2.51   -140.92   
   109. D(H  24,O   8,C   6,O   7)   -174.00  0.000854   -0.89   -174.89   
   110. D(H  24,O   8,C   6,C   4)      3.16  0.001284   -2.16      1.01   
   111. D(C  10,N   9,C   3,C   2)   -137.89 -0.002231    4.15   -133.74   
   112. D(H  25,N   9,C   3,C   4)   -158.16 -0.002067    4.00   -154.16   
   113. D(H  25,N   9,C   3,C   2)     20.01 -0.001708    3.40     23.41   
   114. D(C  10,N   9,C   3,C   4)     43.94 -0.002590    4.76     48.69   
   115. D(C  15,C  10,N   9,H  25)   -146.26 -0.001317    2.47   -143.79   
   116. D(C  15,C  10,N   9,C   3)     11.65 -0.000991    1.75     13.40   
   117. D(C  11,C  10,N   9,H  25)     33.10 -0.000862    1.64     34.75   
   118. D(C  11,C  10,N   9,C   3)   -168.99 -0.000537    0.92   -168.06   
   119. D(H  26,C  11,C  10,C  15)    177.97 -0.000018    0.04    178.01   
   120. D(H  26,C  11,C  10,N   9)     -1.41 -0.000441    0.83     -0.58   
[...]
  92   0.0000       0.161990         4.4080 
  93   0.0000       0.167621         4.5612 
  94   0.0000       0.180775         4.9191 
  95   0.0000       0.182601         4.9688 
  96   0.0000       0.192280         5.2322 
  97   0.0000       0.194279         5.2866 
  98   0.0000       0.197674         5.3790 
  99   0.0000       0.200037         5.4433 
 100   0.0000       0.206093         5.6081 
 101   0.0000       0.210917         5.7393 
 102   0.0000       0.215666         5.8686 
 103   0.0000       0.221008         6.0139 
 104   0.0000       0.224594         6.1115 
 105   0.0000       0.230748         6.2790 
 106   0.0000       0.233317         6.3489 
 107   0.0000       0.238203         6.4818 
 108   0.0000       0.243775         6.6335 
 109   0.0000       0.251286         6.8378 
 110   0.0000       0.259394         7.0585 
 111   0.0000       0.261844         7.1251 
 112   0.0000       0.268052         7.2941 
 113   0.0000       0.272189         7.4066 
 114   0.0000       0.282714         7.6930 
 115   0.0000       0.286426         7.7940 
 116   0.0000       0.288916         7.8618 
 117   0.0000       0.290478         7.9043 
 118   0.0000       0.299121         8.1395 
 119   0.0000       0.301491         8.2040 
 120   0.0000       0.305906         8.3241 
 121   0.0000       0.311294         8.4707 
 122   0.0000       0.319715         8.6999 
 123   0.0000       0.322891         8.7863 
 124   0.0000       0.332661         9.0522 
 125   0.0000       0.338632         9.2147 
 126   0.0000       0.349050         9.4981 
 127   0.0000       0.352879         9.6023 
 128   0.0000       0.360496         9.8096 
 129   0.0000       0.368545        10.0286 
 130   0.0000       0.374736        10.1971 
 131   0.0000       0.383955        10.4480 
 132   0.0000       0.386715        10.5231 
 133   0.0000       0.397347        10.8124 
 134   0.0000       0.408009        11.1025 
 135   0.0000       0.417777        11.3683 
 136   0.0000       0.422794        11.5048 
 137   0.0000       0.433878        11.8064 
 138   0.0000       0.451188        12.2775 
 139   0.0000       0.453368        12.3368 
 140   0.0000       0.457146        12.4396 
 141   0.0000       0.464911        12.6509 
 142   0.0000       0.469689        12.7809 
 143   0.0000       0.488530        13.2936 
 144   0.0000       0.494090        13.4449 
 145   0.0000       0.495672        13.4879 
 146   0.0000       0.500676        13.6241 
 147   0.0000       0.507415        13.8075 
 148   0.0000       0.516766        14.0619 
 149   0.0000       0.518946        14.1212 
 150   0.0000       0.528048        14.3689 
 151   0.0000       0.534296        14.5389 
 152   0.0000       0.539001        14.6670 
 153   0.0000       0.546000        14.8574 
 154   0.0000       0.554143        15.0790 
 155   0.0000       0.555411        15.1135 
 156   0.0000       0.563105        15.3229 
 157   0.0000       0.567295        15.4369 
 158   0.0000       0.570203        15.5160 
 159   0.0000       0.573925        15.6173 
 160   0.0000       0.583823        15.8866 
 161   0.0000       0.589972        16.0540 
 162   0.0000       0.594530        16.1780 
 163   0.0000       0.601472        16.3669 
 164   0.0000       0.604893        16.4600 
 165   0.0000       0.617889        16.8136 
 166   0.0000       0.624692        16.9987 
 167   0.0000       0.627830        17.0841 
 168   0.0000       0.637323        17.3424 
 169   0.0000       0.649568        17.6756 
 170   0.0000       0.650935        17.7128 
 171   0.0000       0.655302        17.8317 
 172   0.0000       0.657332        17.8869 
 173   0.0000       0.667034        18.1509 
 174   0.0000       0.677156        18.4264 
 175   0.0000       0.680930        18.5291 
 176   0.0000       0.695962        18.9381 
 177   0.0000       0.703204        19.1352 
 178   0.0000       0.712577        19.3902 
 179   0.0000       0.714542        19.4437 
 180   0.0000       0.720700        19.6113 
 181   0.0000       0.730768        19.8852 
 182   0.0000       0.734398        19.9840 
 183   0.0000       0.738666        20.1001 
 184   0.0000       0.745729        20.2923 
 185   0.0000       0.752215        20.4688 
 186   0.0000       0.767486        20.8844 
 187   0.0000       0.777326        21.1521 
 188   0.0000       0.778824        21.1929 
 189   0.0000       0.791354        21.5338 
 190   0.0000       0.798075        21.7167 
 191   0.0000       0.799802        21.7637 
 192   0.0000       0.819458        22.2986 
 193   0.0000       0.837589        22.7920 
 194   0.0000       0.846942        23.0465 
 195   0.0000       0.868259        23.6265 
 196   0.0000       0.884358        24.0646 
 197   0.0000       0.890499        24.2317 
 198   0.0000       0.900022        24.4909 
 199   0.0000       0.914254        24.8781 
 200   0.0000       0.926011        25.1980 
 201   0.0000       0.939276        25.5590 
 202   0.0000       0.964290        26.2397 
 203   0.0000       0.975137        26.5348 
 204   0.0000       0.984169        26.7806 
 205   0.0000       0.992054        26.9952 
 206   0.0000       1.009230        27.4625 
 207   0.0000       1.035248        28.1705 
 208   0.0000       1.045736        28.4559 
 209   0.0000       1.067507        29.0484 
 210   0.0000       1.080387        29.3988 
 211   0.0000       1.091465        29.7003 
 212   0.0000       1.101882        29.9837 
 213   0.0000       1.123425        30.5700 
 214   0.0000       1.131537        30.7907 
 215   0.0000       1.156820        31.4787 
 216   0.0000       1.172475        31.9047 
 217   0.0000       1.178123        32.0583 
 218   0.0000       1.189477        32.3673 
 219   0.0000       1.191788        32.4302 
 220   0.0000       1.209433        32.9104 
 221   0.0000       1.223496        33.2930 
 222   0.0000       1.254226        34.1292 
 223   0.0000       1.274416        34.6786 
 224   0.0000       1.275658        34.7124 
 225   0.0000       1.287291        35.0290 
 226   0.0000       1.295364        35.2486 
 227   0.0000       1.306009        35.5383 
 228   0.0000       1.310780        35.6681 
 229   0.0000       1.319072        35.8938 
 230   0.0000       1.323268        36.0079 
 231   0.0000       1.333509        36.2866 
 232   0.0000       1.342550        36.5327 
 233   0.0000       1.349686        36.7268 
 234   0.0000       1.352101        36.7925 
 235   0.0000       1.359578        36.9960 
 236   0.0000       1.367827        37.2205 
 237   0.0000       1.373771        37.3822 
 238   0.0000       1.378338        37.5065 
 239   0.0000       1.401801        38.1450 
 240   0.0000       1.424608        38.7655 
 241   0.0000       1.430284        38.9200 
 242   0.0000       1.434571        39.0367 
 243   0.0000       1.440887        39.2085 
 244   0.0000       1.444837        39.3160 
 245   0.0000       1.451208        39.4894 
 246   0.0000       1.461138        39.7596 
 247   0.0000       1.465240        39.8712 
 248   0.0000       1.468798        39.9680 
 249   0.0000       1.471969        40.0543 
 250   0.0000       1.483701        40.3736 
 251   0.0000       1.490103        40.5478 
 252   0.0000       1.493707        40.6458 
 253   0.0000       1.499260        40.7969 
 254   0.0000       1.510075        41.0912 
 255   0.0000       1.516284        41.2602 
 256   0.0000       1.523056        41.4445 
 257   0.0000       1.525947        41.5231 
 258   0.0000       1.533188        41.7202 
 259   0.0000       1.536693        41.8155 
 260   0.0000       1.546708        42.0881 
 261   0.0000       1.556086        42.3433 
 262   0.0000       1.561780        42.4982 
 263   0.0000       1.564535        42.5731 
 264   0.0000       1.579263        42.9739 
 265   0.0000       1.598545        43.4986 
 266   0.0000       1.604119        43.6503 
 267   0.0000       1.609330        43.7921 
 268   0.0000       1.614583        43.9350 
 269   0.0000       1.621448        44.1219 
 270   0.0000       1.630377        44.3648 
 271   0.0000       1.642526        44.6954 
 272   0.0000       1.656257        45.0690 
 273   0.0000       1.664357        45.2895 
 274   0.0000       1.676043        45.6075 
 275   0.0000       1.686058        45.8800 
 276   0.0000       1.701223        46.2926 
 277   0.0000       1.716740        46.7149 
 278   0.0000       1.730339        47.0849 
 279   0.0000       1.740945        47.3735 
 280   0.0000       1.753698        47.7206 
 281   0.0000       1.757839        47.8332 
 282   0.0000       1.771834        48.2141 
 283   0.0000       1.792188        48.7679 
 284   0.0000       1.818216        49.4762 
 285   0.0000       1.840436        50.0808 
 286   0.0000       1.860393        50.6239 
 287   0.0000       1.888427        51.3867 
 288   0.0000       1.896541        51.6075 
 289   0.0000       1.923812        52.3496 
 290   0.0000       1.958611        53.2965 
 291   0.0000       1.974473        53.7282 
 292   0.0000       1.997311        54.3496 
 293   0.0000       2.011588        54.7381 
 294   0.0000       2.020351        54.9765 
 295   0.0000       2.032999        55.3207 
 296   0.0000       2.043568        55.6083 
 297   0.0000       2.052317        55.8464 
 298   0.0000       2.056376        55.9568 
 299   0.0000       2.063281        56.1447 
 300   0.0000       2.065488        56.2048 
 301   0.0000       2.073277        56.4167 
 302   0.0000       2.081635        56.6442 
 303   0.0000       2.084374        56.7187 
 304   0.0000       2.099100        57.1194 
 305   0.0000       2.120468        57.7009 
 306   0.0000       2.125781        57.8454 
 307   0.0000       2.138434        58.1897 
 308   0.0000       2.179002        59.2937 
 309   0.0000       2.198162        59.8150 
 310   0.0000       2.201707        59.9115 
 311   0.0000       2.215417        60.2846 
 312   0.0000       2.221417        60.4478 
 313   0.0000       2.233078        60.7651 
 314   0.0000       2.239629        60.9434 
 315   0.0000       2.252997        61.3072 
 316   0.0000       2.257591        61.4322 
 317   0.0000       2.266564        61.6763 
 318   0.0000       2.268038        61.7165 
 319   0.0000       2.273751        61.8719 
 320   0.0000       2.282701        62.1155 
 321   0.0000       2.296306        62.4857 
 322   0.0000       2.297224        62.5107 
 323   0.0000       2.305929        62.7475 
 324   0.0000       2.316224        63.0277 
 325   0.0000       2.323752        63.2325 
 326   0.0000       2.335048        63.5399 
 327   0.0000       2.342126        63.7325 
 328   0.0000       2.346842        63.8608 
 329   0.0000       2.350899        63.9712 
 330   0.0000       2.356450        64.1223 
 331   0.0000       2.368478        64.4496 
 332   0.0000       2.372330        64.5544 
 333   0.0000       2.385224        64.9052 
 334   0.0000       2.388707        65.0000 
 335   0.0000       2.393356        65.1265 
 336   0.0000       2.414872        65.7120 
 337   0.0000       2.423125        65.9366 
 338   0.0000       2.437984        66.3409 
 339   0.0000       2.449054        66.6421 
 340   0.0000       2.452891        66.7465 
 341   0.0000       2.486744        67.6678 
 342   0.0000       2.507153        68.2231 
 343   0.0000       2.513736        68.4022 
 344   0.0000       2.528049        68.7917 
 345   0.0000       2.572040        69.9888 
 346   0.0000       2.583831        70.3096 
 347   0.0000       2.589750        70.4707 
 348   0.0000       2.613252        71.1102 
 349   0.0000       2.622124        71.3516 
 350   0.0000       2.644602        71.9633 
 351   0.0000       2.668889        72.6242 
 352   0.0000       2.678479        72.8851 
 353   0.0000       2.685249        73.0693 
 354   0.0000       2.693612        73.2969 
 355   0.0000       2.700176        73.4755 
 356   0.0000       2.703222        73.5584 
 357   0.0000       2.732453        74.3538 
 358   0.0000       2.740370        74.5693 
 359   0.0000       2.745360        74.7050 
 360   0.0000       2.765109        75.2424 
 361   0.0000       2.775727        75.5314 
 362   0.0000       2.786724        75.8306 
 363   0.0000       2.808499        76.4231 
 364   0.0000       2.833634        77.1071 
 365   0.0000       2.856397        77.7265 
 366   0.0000       2.883953        78.4763 
 367   0.0000       2.899810        78.9078 
 368   0.0000       2.909418        79.1693 
 369   0.0000       2.933966        79.8373 
 370   0.0000       2.938372        79.9572 
 371   0.0000       2.956063        80.4386 
 372   0.0000       2.975597        80.9701 
 373   0.0000       2.997762        81.5733 
 374   0.0000       3.003232        81.7221 
 375   0.0000       3.057627        83.2023 
 376   0.0000       3.064979        83.4023 
 377   0.0000       3.082070        83.8674 
 378   0.0000       3.106388        84.5291 
 379   0.0000       3.124616        85.0251 
 380   0.0000       3.145834        85.6025 
 381   0.0000       3.166070        86.1531 
 382   0.0000       3.182606        86.6031 
 383   0.0000       3.189436        86.7890 
 384   0.0000       3.201591        87.1197 
 385   0.0000       3.223212        87.7081 
 386   0.0000       3.230124        87.8961 
 387   0.0000       3.241742        88.2123 
 388   0.0000       3.255784        88.5944 
 389   0.0000       3.266292        88.8803 
 390   0.0000       3.272102        89.0384 
 391   0.0000       3.274011        89.0904 
 392   0.0000       3.284350        89.3717 
 393   0.0000       3.290892        89.5497 
 394   0.0000       3.294589        89.6503 
 395   0.0000       3.305517        89.9477 
 396   0.0000       3.312049        90.1254 
 397   0.0000       3.316993        90.2600 
 398   0.0000       3.331837        90.6639 
 399   0.0000       3.335657        90.7678 
 400   0.0000       3.339296        90.8669 
 401   0.0000       3.348123        91.1071 
 402   0.0000       3.356299        91.3295 
 403   0.0000       3.372886        91.7809 
 404   0.0000       3.397008        92.4373 
 405   0.0000       3.404182        92.6325 
 406   0.0000       3.409773        92.7846 
 407   0.0000       3.419415        93.0470 
 408   0.0000       3.433781        93.4379 
 409   0.0000       3.454625        94.0051 
 410   0.0000       3.458741        94.1171 
 411   0.0000       3.467019        94.3424 
 412   0.0000       3.474694        94.5512 
 413   0.0000       3.489640        94.9579 
 414   0.0000       3.510579        95.5277 
 415   0.0000       3.533555        96.1529 
 416   0.0000       3.545648        96.4820 
 417   0.0000       3.583275        97.5059 
 418   0.0000       3.598880        97.9305 
 419   0.0000       3.605082        98.0993 
 420   0.0000       3.632063        98.8335 
 421   0.0000       3.648281        99.2748 
 422   0.0000       3.663526        99.6896 
 423   0.0000       3.688347       100.3650 
 424   0.0000       3.722742       101.3010 
 425   0.0000       3.769791       102.5812 
 426   0.0000       3.790730       103.1510 
 427   0.0000       3.845799       104.6495 
 428   0.0000       3.982589       108.3718 
 429   0.0000       4.060654       110.4960 
 430   0.0000       4.094867       111.4270 
 431   0.0000       4.112417       111.9046 
 432   0.0000       4.130711       112.4024 
 433   0.0000       4.208683       114.5241 
 434   0.0000       4.284979       116.6002 
 435   0.0000       4.388622       119.4205 
 436   0.0000       4.441649       120.8634 
 437   0.0000       4.609165       125.4218 
 438   0.0000       4.694698       127.7492 
 439   0.0000       4.782590       130.1409 
 440   0.0000      21.469038       584.2022 
 441   0.0000      21.501886       585.0961 
 442   0.0000      21.891275       595.6919 
 443   0.0000      21.940612       597.0344 
 444   0.0000      22.029000       599.4396 
 445   0.0000      22.047386       599.9399 
 446   0.0000      22.092286       601.1617 
 447   0.0000      22.156862       602.9189 
 448   0.0000      22.189779       603.8146 
 449   0.0000      22.213640       604.4639 
 450   0.0000      22.220859       604.6603 
 451   0.0000      22.289693       606.5334 
 452   0.0000      22.331229       607.6636 
 453   0.0000      22.356079       608.3398 
 454   0.0000      32.171675       875.4358 
 455   0.0000      43.685311      1188.7377 
 456   0.0000      43.815406      1192.2778 
 457   0.0000      57.201074      1556.5203 
 458   0.0000      57.218646      1556.9985 
 459   0.0000      57.230016      1557.3079 
Total SCF time: 0 days 0 hours 0 min 44 sec 

Maximum memory used throughout the entire SCF-calculation: 87.8 MB


-------------------------------------------------------------------------------
                          DFT DISPERSION CORRECTION                            
                                                                               
                                 DFTD4 V2.5                                    
-------------------------------------------------------------------------------
Starting D4
-------------------------   ----------------
Dispersion correction           -0.013914581
-------------------------   ----------------

------------------   -----------------
gCP correction             0.018454957
------------------   -----------------

-------------------------   --------------------
FINAL SINGLE POINT ENERGY     -1044.162598793614
-------------------------   --------------------

                                *** OPTIMIZATION RUN DONE ***

                            ***************************************
                            *     ORCA property calculations      *
                            ***************************************

                                    ---------------------
                                    Active property flags
                                    ---------------------
   (+) Dipole Moment


------------------------------------------------------------------------------
                       ORCA ELECTRIC PROPERTIES CALCULATION
------------------------------------------------------------------------------

Dipole Moment Calculation                       ... on
Quadrupole Moment Calculation                   ... off
Polarizability Calculation                      ... off
GBWName                                         ... opt_3.gbw
Electron density                                ... opt_3.scfp
The origin for moment calculation is the CENTER OF MASS  = ( 0.214419, -0.004622  0.056270)

-------------
DIPOLE MOMENT
-------------
                                X             Y             Z
Electronic contribution:    -17.39249       5.43080       4.34015
Nuclear contribution   :     18.42184      -7.12488      -8.34078
                        -----------------------------------------
Total Dipole Moment    :      1.02935      -1.69409      -4.00063
                        -----------------------------------------
Magnitude (a.u.)       :      4.46482
Magnitude (Debye)      :     11.34866



--------------------
Rotational spectrum 
--------------------
 
Rotational constants in cm-1:     0.016414     0.007331     0.006952 
Rotational constants in MHz :   492.064368   219.773127   208.426822 

 Dipole components along the rotational axes: 
x,y,z [a.u.] :     0.306191     3.167426    -3.131810 
x,y,z [Debye]:     0.778276     8.050956    -7.960429 

 

Timings for individual modules:

Sum of individual times         ...     1193.754 sec (=  19.896 min)
GTO integral calculation        ...       34.886 sec (=   0.581 min)   2.9 %
SCF iterations                  ...     1054.338 sec (=  17.572 min)  88.3 %
SCF Gradient evaluation         ...      103.029 sec (=   1.717 min)   8.6 %
Geometry relaxation             ...        1.501 sec (=   0.025 min)   0.1 %
                             ****ORCA TERMINATED NORMALLY****
TOTAL RUN TIME: 0 days 0 hours 20 minutes 25 seconds 330 msec
