
                                 *****************
                                 * O   R   C   A *
                                 *****************

                                            #,                                       
                                            ###                                      
                                            ####                                     
                                            #####                                    
                                            ######                                   
                                           ########,                                 
                                     ,,################,,,,,                         
                               ,,#################################,,                 
                          ,,##########################################,,             
                       ,#########################################, ''#####,          
                    ,#############################################,,   '####,        
                  ,##################################################,,,,####,       
                ,###########''''           ''''###############################       
              ,#####''   ,,,,##########,,,,          '''####'''          '####       
            ,##' ,,,,###########################,,,                        '##       
           ' ,,###''''                  '''############,,,                           
         ,,##''                                '''############,,,,        ,,,,,,###''
      ,#''                                            '''#######################'''  
     '                                                          ''''####''''         
             ,#######,   #######,   ,#######,      ##                                
            ,#'     '#,  ##    ##  ,#'     '#,    #''#        ######   ,####,        
            ##       ##  ##   ,#'  ##            #'  '#       #        #'  '#        
            ##       ##  #######   ##           ,######,      #####,   #    #        
            '#,     ,#'  ##    ##  '#,     ,#' ,#      #,         ##   #,  ,#        
             '#######'   ##     ##  '#######'  #'      '#     #####' # '####'        



                  #######################################################
                  #                        -***-                        #
                  #          Department of theory and spectroscopy      #
                  #    Directorship and core code : Frank Neese         #
                  #        Max Planck Institute fuer Kohlenforschung    #
                  #                Kaiser Wilhelm Platz 1               #
                  #                 D-45470 Muelheim/Ruhr               #
                  #                      Germany                        #
                  #                                                     #
                  #                  All rights reserved                #
                  #                        -***-                        #
                  #######################################################


                         Program Version 5.0.1 -  RELEASE  -


 With contributions from (in alphabetic order):
   Daniel Aravena         : Magnetic Suceptibility
   Michael Atanasov       : Ab Initio Ligand Field Theory (pilot matlab implementation)
   Alexander A. Auer      : GIAO ZORA, VPT2 properties, NMR spectrum
   Ute Becker             : Parallelization
   Giovanni Bistoni       : ED, misc. LED, open-shell LED, HFLD
   Martin Brehm           : Molecular dynamics
   Dmytro Bykov           : SCF Hessian
   Vijay G. Chilkuri      : MRCI spin determinant printing, contributions to CSF-ICE
   Dipayan Datta          : RHF DLPNO-CCSD density
   Achintya Kumar Dutta   : EOM-CC, STEOM-CC
   Dmitry Ganyushin       : Spin-Orbit,Spin-Spin,Magnetic field MRCI
   Miquel Garcia          : C-PCM and meta-GGA Hessian, CC/C-PCM, Gaussian charge scheme
   Yang Guo               : DLPNO-NEVPT2, F12-NEVPT2, CIM, IAO-localization
   Andreas Hansen         : Spin unrestricted coupled pair/coupled cluster methods
   Benjamin Helmich-Paris : MC-RPA, TRAH-SCF, COSX integrals
   Lee Huntington         : MR-EOM, pCC
   Robert Izsak           : Overlap fitted RIJCOSX, COSX-SCS-MP3, EOM
   Marcus Kettner         : VPT2
   Christian Kollmar      : KDIIS, OOCD, Brueckner-CCSD(T), CCSD density, CASPT2, CASPT2-K
   Simone Kossmann        : Meta GGA functionals, TD-DFT gradient, OOMP2, MP2 Hessian
   Martin Krupicka        : Initial AUTO-CI
   Lucas Lang             : DCDCAS
   Marvin Lechner         : AUTO-CI (C++ implementation), FIC-MRCC
   Dagmar Lenk            : GEPOL surface, SMD
   Dimitrios Liakos       : Extrapolation schemes; Compound Job, initial MDCI parallelization
   Dimitrios Manganas     : Further ROCIS development; embedding schemes
   Dimitrios Pantazis     : SARC Basis sets
   Anastasios Papadopoulos: AUTO-CI, single reference methods and gradients
   Taras Petrenko         : DFT Hessian,TD-DFT gradient, ASA, ECA, R-Raman, ABS, FL, XAS/XES, NRVS
   Peter Pinski           : DLPNO-MP2, DLPNO-MP2 Gradient
   Christoph Reimann      : Effective Core Potentials
   Marius Retegan         : Local ZFS, SOC
   Christoph Riplinger    : Optimizer, TS searches, QM/MM, DLPNO-CCSD(T), (RO)-DLPNO pert. Triples
   Tobias Risthaus        : Range-separated hybrids, TD-DFT gradient, RPA, STAB
   Michael Roemelt        : Original ROCIS implementation
   Masaaki Saitow         : Open-shell DLPNO-CCSD energy and density
   Barbara Sandhoefer     : DKH picture change effects
   Avijit Sen             : IP-ROCIS
   Kantharuban Sivalingam : CASSCF convergence, NEVPT2, FIC-MRCI
   Bernardo de Souza      : ESD, SOC TD-DFT
   Georgi Stoychev        : AutoAux, RI-MP2 NMR, DLPNO-MP2 response
   Willem Van den Heuvel  : Paramagnetic NMR
   Boris Wezisla          : Elementary symmetry handling
   Frank Wennmohs         : Technical directorship


 We gratefully acknowledge several colleagues who have allowed us to
 interface, adapt or use parts of their codes:
   Stefan Grimme, W. Hujo, H. Kruse, P. Pracht,  : VdW corrections, initial TS optimization,
                  C. Bannwarth, S. Ehlert          DFT functionals, gCP, sTDA/sTD-DF
   Ed Valeev, F. Pavosevic, A. Kumar             : LibInt (2-el integral package), F12 methods
   Garnet Chan, S. Sharma, J. Yang, R. Olivares  : DMRG
   Ulf Ekstrom                                   : XCFun DFT Library
   Mihaly Kallay                                 : mrcc  (arbitrary order and MRCC methods)
   Jiri Pittner, Ondrej Demel                    : Mk-CCSD
   Frank Weinhold                                : gennbo (NPA and NBO analysis)
   Christopher J. Cramer and Donald G. Truhlar   : smd solvation model
   Lars Goerigk                                  : TD-DFT with DH, B97 family of functionals
   V. Asgeirsson, H. Jonsson                     : NEB implementation
   FAccTs GmbH                                   : IRC, NEB, NEB-TS, DLPNO-Multilevel, CI-OPT
                                                   MM, QMMM, 2- and 3-layer-ONIOM, Crystal-QMMM,
                                                   LR-CPCM, SF, NACMEs, symmetry and pop. for TD-DFT,
                                                   nearIR, NL-DFT gradient (VV10), updates on ESD,
                                                   ML-optimized integration grids
   S Lehtola, MJT Oliveira, MAL Marques          : LibXC Library
   Liviu Ungur et al                             : ANISO software


 Your calculation uses the libint2 library for the computation of 2-el integrals
 For citations please refer to: http://libint.valeyev.net

 Your ORCA version has been built with support for libXC version: 5.1.0
 For citations please refer to: https://tddft.org/programs/libxc/

 This ORCA versions uses:
   CBLAS   interface :  Fast vector & matrix operations
   LAPACKE interface :  Fast linear algebra routines
   SCALAPACK package :  Parallel linear algebra routines
   Shared memory     :  Shared parallel matrices
   BLAS/LAPACK       :  OpenBLAS 0.3.15  USE64BITINT DYNAMIC_ARCH NO_AFFINITY SkylakeX SINGLE_THREADED
        Core in use  :  SkylakeX
   Copyright (c) 2011-2014, The OpenBLAS Project


Your calculation utilizes the geometrical counterpoise correction gCP
Please cite in your paper:
H.Kruse, S. Grimme J.Chem.Phys., 136, (2012), 154101 
   

Your calculation utilizes the atom-pairwise dispersion correction
based on tight binding partial charges (D4)
Cite in your paper:
E.Caldeweyher, C.Bannwarth, S.Grimme, J.Chem.Phys., (2017), 147, 034112.
E.Caldeweyher, S.Ehlert, A.Hansen, H.Neugebauer, S.Grimme, J.Chem.Phys., (2018), in progress.
   

Your calculation utilizes the SMD solvation module
Please cite in your paper:
A.V. Marenich, C.J. Cramer, D.G. Truhlar J. Phys. Chem. B, 113, (2009), 6378 

================================================================================

----- Orbital basis set information -----
Your calculation utilizes the basis: def2-mTZVPP
   Stefan Grimme, Andreas Hansen, Sebastian Ehlert, and Jan-Michael Mewes 
   J. Chem. Phys. 154, 000000 (2021). DOI: 10.1063/5.0040021

----- AuxJ basis set information -----
Your calculation utilizes the basis: def2-mTZVPP/J
   Stefan Grimme, Andreas Hansen, Sebastian Ehlert, and Jan-Michael Mewes 
   J. Chem. Phys. 154, 000000 (2021). DOI: 10.1063/5.0040021

================================================================================
                                        WARNINGS
                       Please study these warnings very carefully!
================================================================================

Using LibXC functional ID 497 : Re-regularized SCAN exchange by Furness et al
[ 1]  J. W. Furness, A. D. Kaplan, J. Ning, J. P. Perdew, and J. Sun, J. Phys. Chem. Lett. 11, 8208 (2020)
[ 2]  J. W. Furness, A. D. Kaplan, J. Ning, J. P. Perdew, and J. Sun, J. Phys. Chem. Lett. 11, 9248 (2020)
Using LibXC functional ID 498 : Re-regularized SCAN correlation by Furness et al
[ 1]  J. W. Furness, A. D. Kaplan, J. Ning, J. P. Perdew, and J. Sun, J. Phys. Chem. Lett. 11, 8208 (2020)
[ 2]  J. W. Furness, A. D. Kaplan, J. Ning, J. P. Perdew, and J. Sun, J. Phys. Chem. Lett. 11, 9248 (2020)
Using LibXC functional ID 497 : Re-regularized SCAN exchange by Furness et al
[ 1]  J. W. Furness, A. D. Kaplan, J. Ning, J. P. Perdew, and J. Sun, J. Phys. Chem. Lett. 11, 8208 (2020)
[ 2]  J. W. Furness, A. D. Kaplan, J. Ning, J. P. Perdew, and J. Sun, J. Phys. Chem. Lett. 11, 9248 (2020)
Using LibXC functional ID 498 : Re-regularized SCAN correlation by Furness et al
[ 1]  J. W. Furness, A. D. Kaplan, J. Ning, J. P. Perdew, and J. Sun, J. Phys. Chem. Lett. 11, 8208 (2020)
[ 2]  J. W. Furness, A. D. Kaplan, J. Ning, J. P. Perdew, and J. Sun, J. Phys. Chem. Lett. 11, 9248 (2020)

INFO   : the flag for use of the SHARK integral package has been found!

================================================================================
                                       INPUT FILE
================================================================================
NAME = opt_4.inp
|  1> ! r2SCAN-3c opt tightSCF noautostart miniprint nopop
|  2> %maxcore  7000
|  3> %pal nprocs   48 end
|  4> %cpcm
|  5> smd true
|  6> SMDsolvent "water"
|  7> end
|  8> * xyz   0   1
|  9> C 3.582 2.473 0.419
| 10> C 3.418 2.226 1.775
| 11> C 2.622 1.182 2.203
| 12> C 1.986 0.344 1.287
| 13> C 2.214 0.549 -0.084
| 14> C 2.980 1.637 -0.501
| 15> C 1.709 -0.363 -1.142
| 16> O 1.290 0.033 -2.210
| 17> O 1.788 -1.675 -0.906
| 18> N 1.177 -0.689 1.752
| 19> C -0.079 -1.013 1.267
| 20> C -0.685 -2.195 1.707
| 21> C -1.923 -2.574 1.232
| 22> C -2.599 -1.786 0.312
| 23> C -2.011 -0.600 -0.102
| 24> C -0.770 -0.199 0.370
| 25> C -2.720 0.317 -1.045
| 26> F -3.825 -0.215 -1.598
| 27> F -3.137 1.459 -0.438
| 28> F -1.954 0.730 -2.075
| 29> H 4.180 3.303 0.082
| 30> H 3.898 2.864 2.500
| 31> H 2.474 1.015 3.259
| 32> H 3.106 1.788 -1.562
| 33> H 2.223 -1.891 -0.061
| 34> H 1.349 -0.971 2.707
| 35> H -0.170 -2.817 2.422
| 36> H -2.371 -3.492 1.573
| 37> H -3.562 -2.079 -0.072
| 38> H -0.361 0.745 0.042
| 39> *
| 40> 
| 41>                          ****END OF INPUT****
================================================================================

                       *****************************
                       * Geometry Optimization Run *
                       *****************************

Geometry optimization settings:
Update method            Update   .... BFGS
Choice of coordinates    CoordSys .... Z-matrix Internals
Initial Hessian          InHess   .... Almoef's Model

Convergence Tolerances:
Energy Change            TolE     ....  5.0000e-06 Eh
Max. Gradient            TolMAXG  ....  3.0000e-04 Eh/bohr
RMS Gradient             TolRMSG  ....  1.0000e-04 Eh/bohr
Max. Displacement        TolMAXD  ....  4.0000e-03 bohr
RMS Displacement         TolRMSD  ....  2.0000e-03 bohr
Strict Convergence                ....  False
------------------------------------------------------------------------------
                        ORCA OPTIMIZATION COORDINATE SETUP
------------------------------------------------------------------------------

The optimization will be done in new redundant internal coordinates
Making redundant internal coordinates   ...  (new redundants) done
Evaluating the initial hessian          ...  (Almloef) done
Evaluating the coordinates              ...  done
Calculating the B-matrix                .... done
Calculating the G-matrix                .... done
Diagonalizing the G-matrix              .... done
Small eigenvalue found = 3.683e-03
Small eigenvalue found = 1.352e-02
Small eigenvalue found = 1.547e-02
The first mode is                       ....   64
The number of degrees of freedom        ....   84

    -----------------------------------------------------------------
                    Redundant Internal Coordinates


    -----------------------------------------------------------------
         Definition                    Initial Value    Approx d2E/dq
    -----------------------------------------------------------------
      1. B(C   1,C   0)                  1.3880         0.629323   
      2. B(C   2,C   1)                  1.3808         0.646164   
      3. B(C   3,C   2)                  1.3949         0.613610   
      4. B(C   4,C   3)                  1.4049         0.591589   
      5. B(C   5,C   4)                  1.3944         0.614748   
      6. B(C   5,C   0)                  1.3812         0.645336   
      7. B(C   6,C   4)                  1.4853         0.440235   
      8. B(O   7,C   6)                  1.2137         1.069534   
      9. B(O   8,C   6)                  1.3354         0.683901   
     10. B(N   9,C   3)                  1.3920         0.555405   
     11. B(C  10,N   9)                  1.3848         0.570340   
     12. B(C  11,C  10)                  1.3993         0.603875   
     13. B(C  12,C  11)                  1.3791         0.650328   
     14. B(C  13,C  12)                  1.3872         0.631260   
     15. B(C  14,C  13)                  1.3870         0.631748   
     16. B(C  15,C  14)                  1.3870         0.631807   
     17. B(C  15,C  10)                  1.3945         0.614508   
     18. B(C  16,C  14)                  1.4943         0.425986   
     19. B(F  17,C  16)                  1.3453         0.612728   
     20. B(F  18,C  16)                  1.3589         0.582972   
     21. B(F  19,C  16)                  1.3484         0.605776   
     22. B(H  20,C   0)                  1.0771         0.377622   
     23. B(H  21,C   1)                  1.0785         0.375699   
     24. B(H  22,C   2)                  1.0793         0.374511   
     25. B(H  23,C   5)                  1.0791         0.374849   
     26. B(H  24,O   8)                  0.9746         0.492747   
     27. B(H  25,N   9)                  1.0105         0.431896   
     28. B(H  26,C  11)                  1.0786         0.375529   
     29. B(H  27,C  12)                  1.0769         0.377856   
     30. B(H  28,C  13)                  1.0773         0.377235   
     31. B(H  29,C  15)                  1.0798         0.373828   
     32. A(C   5,C   0,H  20)          120.0007         0.358192   
     33. A(C   1,C   0,H  20)          120.5570         0.356665   
     34. A(C   1,C   0,C   5)          119.4400         0.438387   
     35. A(C   0,C   1,C   2)          120.3613         0.438488   
     36. A(C   2,C   1,H  21)          119.7010         0.357959   
     37. A(C   0,C   1,H  21)          119.9260         0.356356   
     38. A(C   1,C   2,C   3)          120.8970         0.436494   
     39. A(C   1,C   2,H  22)          119.9528         0.357766   
     40. A(C   3,C   2,H  22)          119.1442         0.354640   
     41. A(C   2,C   3,C   4)          118.6319         0.429622   
     42. A(C   4,C   3,N   9)          121.9102         0.419284   
     43. A(C   2,C   3,N   9)          119.4341         0.422028   
     44. A(C   3,C   4,C   5)          119.6599         0.429765   
     45. A(C   5,C   4,C   6)          116.9263         0.407719   
     46. A(C   3,C   4,C   6)          123.3919         0.404961   
     47. A(C   0,C   5,C   4)          120.8307         0.436539   
     48. A(C   4,C   5,H  23)          117.8638         0.354805   
     49. A(C   0,C   5,H  23)          121.2881         0.357743   
     50. A(C   4,C   6,O   8)          117.2104         0.412816   
     51. A(O   7,C   6,O   8)          119.7690         0.481613   
     52. A(C   4,C   6,O   7)          122.9462         0.447305   
     53. A(C   6,O   8,H  24)          113.4135         0.372952   
     54. A(C   3,N   9,C  10)          125.7130         0.413866   
     55. A(C  10,N   9,H  25)          114.8391         0.353508   
     56. A(C   3,N   9,H  25)          115.0784         0.351924   
     57. A(N   9,C  10,C  11)          118.7052         0.422823   
     58. A(C  11,C  10,C  15)          118.7340         0.431324   
     59. A(N   9,C  10,C  15)          122.5560         0.424145   
     60. A(C  12,C  11,H  26)          119.8988         0.358322   
     61. A(C  10,C  11,H  26)          119.2619         0.353843   
     62. A(C  10,C  11,C  12)          120.8381         0.435742   
     63. A(C  13,C  12,H  27)          119.4400         0.356889   
     64. A(C  11,C  12,H  27)          119.9108         0.358699   
     65. A(C  11,C  12,C  13)          120.6487         0.439240   
     66. A(C  14,C  13,H  28)          120.3385         0.356836   
     67. A(C  12,C  13,H  28)          121.1640         0.356789   
     68. A(C  12,C  13,C  14)          118.4964         0.436950   
     69. A(C  15,C  14,C  16)          117.5087         0.407320   
     70. A(C  13,C  14,C  16)          120.7952         0.407314   
     71. A(C  13,C  14,C  15)          121.6662         0.437018   
     72. A(C  14,C  15,H  29)          119.2284         0.356292   
     73. A(C  10,C  15,H  29)          121.1980         0.354618   
     74. A(C  10,C  15,C  14)          119.5709         0.434845   
     75. A(F  18,C  16,F  19)          104.9595         0.418251   
     76. A(F  17,C  16,F  19)          105.8863         0.421981   
     77. A(C  14,C  16,F  19)          113.6080         0.399963   
     78. A(F  17,C  16,F  18)          105.3015         0.419102   
     79. A(C  14,C  16,F  18)          112.2995         0.397274   
     80. A(C  14,C  16,F  17)          113.9825         0.400767   
     81. D(C   2,C   1,C   0,H  20)    178.2921         0.027456   
     82. D(H  21,C   1,C   0,H  20)     -0.4662         0.027456   
     83. D(C   2,C   1,C   0,C   5)     -2.2602         0.027456   
     84. D(H  21,C   1,C   0,C   5)    178.9815         0.027456   
     85. D(H  22,C   2,C   1,C   0)   -178.0674         0.029047   
     86. D(H  22,C   2,C   1,H  21)      0.6937         0.029047   
     87. D(C   3,C   2,C   1,C   0)      1.0372         0.029047   
     88. D(C   3,C   2,C   1,H  21)    179.7983         0.029047   
     89. D(N   9,C   3,C   2,H  22)     -0.0878         0.026022   
     90. D(N   9,C   3,C   2,C   1)   -179.1995         0.026022   
     91. D(C   4,C   3,C   2,H  22)   -178.3479         0.026022   
     92. D(C   4,C   3,C   2,C   1)      2.5405         0.026022   
     93. D(C   6,C   4,C   3,C   2)    173.3648         0.024091   
     94. D(C   5,C   4,C   3,N   9)    176.9045         0.024091   
     95. D(C   5,C   4,C   3,C   2)     -4.8807         0.024091   
     96. D(C   6,C   4,C   3,N   9)     -4.8500         0.024091   
     97. D(H  23,C   5,C   4,C   6)      3.8886         0.026124   
     98. D(C   0,C   5,C   4,C   6)   -174.6143         0.026124   
     99. D(C   0,C   5,C   4,C   3)      3.7427         0.026124   
    100. D(H  23,C   5,C   0,H  20)      0.8546         0.028968   
    101. D(H  23,C   5,C   0,C   1)   -178.5962         0.028968   
    102. D(H  23,C   5,C   4,C   3)   -177.7544         0.026124   
    103. D(C   4,C   5,C   0,H  20)    179.3058         0.028968   
    104. D(C   4,C   5,C   0,C   1)     -0.1449         0.028968   
    105. D(O   8,C   6,C   4,C   5)    136.9964         0.013224   
    106. D(O   8,C   6,C   4,C   3)    -41.2936         0.013224   
    107. D(O   7,C   6,C   4,C   5)    -39.8552         0.013224   
    108. D(O   7,C   6,C   4,C   3)    141.8547         0.013224   
    109. D(H  24,O   8,C   6,O   7)    173.8901         0.034873   
    110. D(H  24,O   8,C   6,C   4)     -3.0664         0.034873   
    111. D(C  10,N   9,C   3,C   2)    134.6779         0.024613   
    112. D(H  25,N   9,C   3,C   4)    157.6970         0.024613   
    113. D(H  25,N   9,C   3,C   2)    -20.5040         0.024613   
    114. D(C  10,N   9,C   3,C   4)    -47.1212         0.024613   
    115. D(C  15,C  10,N   9,H  25)    145.3303         0.026035   
    116. D(C  15,C  10,N   9,C   3)     -9.9029         0.026035   
    117. D(C  11,C  10,N   9,H  25)    -33.8616         0.026035   
    118. D(C  11,C  10,N   9,C   3)    170.9051         0.026035   
    119. D(H  26,C  11,C  10,C  15)   -178.2957         0.025157   
    120. D(H  26,C  11,C  10,N   9)      0.9276         0.025157   
    121. D(C  12,C  11,C  10,C  15)      2.1024         0.025157   
    122. D(C  12,C  11,C  10,N   9)   -178.6743         0.025157   
    123. D(H  27,C  12,C  11,H  26)     -0.2436         0.029449   
    124. D(H  27,C  12,C  11,C  10)    179.3558         0.029449   
    125. D(C  13,C  12,C  11,H  26)   -179.9872         0.029449   
    126. D(C  13,C  12,C  11,C  10)     -0.3878         0.029449   
    127. D(H  28,C  13,C  12,H  27)     -0.3639         0.027636   
    128. D(H  28,C  13,C  12,C  11)    179.3809         0.027636   
    129. D(C  14,C  13,C  12,H  27)    179.2577         0.027636   
    130. D(C  14,C  13,C  12,C  11)     -0.9975         0.027636   
    131. D(C  16,C  14,C  13,H  28)      2.3193         0.027682   
    132. D(C  16,C  14,C  13,C  12)   -177.3056         0.027682   
    133. D(C  15,C  14,C  13,H  28)   -179.7162         0.027682   
    134. D(C  15,C  14,C  13,C  12)      0.6590         0.027682   
    135. D(H  29,C  15,C  14,C  16)     -0.3103         0.027687   
    136. D(H  29,C  15,C  14,C  13)   -178.3390         0.027687   
    137. D(C  10,C  15,C  14,C  16)    179.0943         0.027687   
    138. D(C  10,C  15,C  14,C  13)      1.0656         0.027687   
    139. D(H  29,C  15,C  10,C  11)    176.9785         0.026102   
    140. D(H  29,C  15,C  10,N   9)     -2.2132         0.026102   
    141. D(C  14,C  15,C  10,C  11)     -2.4141         0.026102   
    142. D(C  14,C  15,C  10,N   9)    178.3942         0.026102   
    143. D(F  17,C  16,C  14,C  13)    -10.4788         0.013408   
    144. D(F  19,C  16,C  14,C  15)     50.0489         0.013408   
    145. D(F  19,C  16,C  14,C  13)   -131.9043         0.013408   
    146. D(F  18,C  16,C  14,C  15)    -68.8804         0.013408   
    147. D(F  18,C  16,C  14,C  13)    109.1664         0.013408   
    148. D(F  17,C  16,C  14,C  15)    171.4744         0.013408   
    -----------------------------------------------------------------

Number of atoms                         .... 30
Number of degrees of freedom            .... 148

         *************************************************************
         *                GEOMETRY OPTIMIZATION CYCLE   1            *
         *************************************************************
---------------------------------
CARTESIAN COORDINATES (ANGSTROEM)
---------------------------------
  C      3.582000    2.473000    0.419000
  C      3.418000    2.226000    1.775000
  C      2.622000    1.182000    2.203000
  C      1.986000    0.344000    1.287000
  C      2.214000    0.549000   -0.084000
  C      2.980000    1.637000   -0.501000
  C      1.709000   -0.363000   -1.142000
  O      1.290000    0.033000   -2.210000
  O      1.788000   -1.675000   -0.906000
  N      1.177000   -0.689000    1.752000
  C     -0.079000   -1.013000    1.267000
  C     -0.685000   -2.195000    1.707000
  C     -1.923000   -2.574000    1.232000
  C     -2.599000   -1.786000    0.312000
  C     -2.011000   -0.600000   -0.102000
  C     -0.770000   -0.199000    0.370000
  C     -2.720000    0.317000   -1.045000
  F     -3.825000   -0.215000   -1.598000
  F     -3.137000    1.459000   -0.438000
  F     -1.954000    0.730000   -2.075000
  H      4.180000    3.303000    0.082000
  H      3.898000    2.864000    2.500000
  H      2.474000    1.015000    3.259000
  H      3.106000    1.788000   -1.562000
  H      2.223000   -1.891000   -0.061000
  H      1.349000   -0.971000    2.707000
  H     -0.170000   -2.817000    2.422000
  H     -2.371000   -3.492000    1.573000
  H     -3.562000   -2.079000   -0.072000
  H     -0.361000    0.745000    0.042000

----------------------------
CARTESIAN COORDINATES (A.U.)
----------------------------
  NO LB      ZA    FRAG     MASS         X           Y           Z
   0 C     6.0000    0    12.011    6.768999    4.673293    0.791795
   1 C     6.0000    0    12.011    6.459084    4.206530    3.354264
   2 C     6.0000    0    12.011    4.954862    2.233656    4.163067
   3 C     6.0000    0    12.011    3.752996    0.650066    2.432078
   4 C     6.0000    0    12.011    4.183854    1.037460   -0.158737
   5 C     6.0000    0    12.011    5.631384    3.093482   -0.946753
   6 C     6.0000    0    12.011    3.229542   -0.685971   -2.158067
   7 O     8.0000    0    15.999    2.437747    0.062361   -4.176295
   8 O     8.0000    0    15.999    3.378830   -3.165291   -1.712092
   9 N     7.0000    0    14.007    2.224208   -1.302021    3.310800
  10 C     6.0000    0    12.011   -0.149288   -1.914293    2.394283
  11 C     6.0000    0    12.011   -1.294462   -4.147949    3.225763
  12 C     6.0000    0    12.011   -3.633943   -4.864155    2.328143
  13 C     6.0000    0    12.011   -4.911398   -3.375051    0.589595
  14 C     6.0000    0    12.011   -3.800239   -1.133836   -0.192752
  15 C     6.0000    0    12.011   -1.455089   -0.376056    0.699199
  16 C     6.0000    0    12.011   -5.140055    0.599043   -1.974764
  17 F     9.0000    0    18.998   -7.228202   -0.406291   -3.019782
  18 F     9.0000    0    18.998   -5.928071    2.757110   -0.827700
  19 F     9.0000    0    18.998   -3.692525    1.379500   -3.921182
  20 H     1.0000    0     1.008    7.899055    6.241765    0.154958
  21 H     1.0000    0     1.008    7.366152    5.412176    4.724315
  22 H     1.0000    0     1.008    4.675182    1.918072    6.158617
  23 H     1.0000    0     1.008    5.869489    3.378830   -2.951752
  24 H     1.0000    0     1.008    4.200861   -3.573472   -0.115273
  25 H     1.0000    0     1.008    2.549241   -1.834924    5.115489
  26 H     1.0000    0     1.008   -0.321253   -5.323359    4.576917
  27 H     1.0000    0     1.008   -4.480541   -6.598924    2.972539
  28 H     1.0000    0     1.008   -6.731204   -3.928741   -0.136060
  29 H     1.0000    0     1.008   -0.682191    1.407846    0.079368



           ************************************************************
           *        Program running with 48 parallel MPI-processes    *
           *              working on a common directory               *
           ************************************************************
------------------------------------------------------------------------------
                   ___                                                        
                  /   \      - P O W E R E D   B Y -                         
                 /     \                                                     
                 |  |  |   _    _      __       _____    __    __             
                 |  |  |  | |  | |    /  \     |  _  \  |  |  /  |          
                  \  \/   | |  | |   /    \    | | | |  |  | /  /          
                 / \  \   | |__| |  /  /\  \   | |_| |  |  |/  /          
                |  |  |   |  __  | /  /__\  \  |    /   |      \           
                |  |  |   | |  | | |   __   |  |    \   |  |\   \          
                \     /   | |  | | |  |  |  |  | |\  \  |  | \   \       
                 \___/    |_|  |_| |__|  |__|  |_| \__\ |__|  \__/        
                                                                              
                      - O R C A' S   B I G   F R I E N D -                    
                                      &                                       
                       - I N T E G R A L  F E E D E R -                       
                                                                              
 v1 FN, 2020, v2 2021                                                         
------------------------------------------------------------------------------


Reading SHARK input file opt_4.SHARKINP.tmp ... ok
----------------------
SHARK INTEGRAL PACKAGE
----------------------

Number of atoms                             ...     30
Number of basis functions                   ...    460
Number of shells                            ...    216
Maximum angular momentum                    ...      2
Integral batch strategy                     ... SHARK/LIBINT Hybrid
RI-J (if used) integral strategy            ... SPLIT-RIJ (Revised 2003 algorithm where possible)
Printlevel                                  ...      1
Contraction scheme used                     ... SEGMENTED contraction
Coulomb Range Separation                    ... NOT USED
Exchange Range Separation                   ... NOT USED
Finite Nucleus Model                        ... NOT USED
Auxiliary Coulomb fitting basis             ... AVAILABLE
   # of basis functions in Aux-J            ...    725
   # of shells in Aux-J                     ...    293
   Maximum angular momentum in Aux-J        ...      2
Auxiliary J/K fitting basis                 ... NOT available
Auxiliary Correlation fitting basis         ... NOT available
Auxiliary 'external' fitting basis          ... NOT available
Integral threshold                          ...     2.500000e-11
Primitive cut-off                           ...     2.500000e-12
Primitive pair pre-selection threshold      ...     2.500000e-12

Calculating pre-screening integrals         ... done (  0.1 sec) Dimension = 216
Organizing shell pair data                  ... done (  0.1 sec)
Shell pair information
Total number of shell pairs                 ...     23436
Shell pairs after pre-screening             ...     17762
Total number of primitive shell pairs       ...     87206
Primitive shell pairs kept                  ...     42122
          la=0 lb=0:   5140 shell pairs
          la=1 lb=0:   6557 shell pairs
          la=1 lb=1:   2084 shell pairs
          la=2 lb=0:   2256 shell pairs
          la=2 lb=1:   1455 shell pairs
          la=2 lb=2:    270 shell pairs

Calculating one electron integrals          ... done (  0.0 sec)
Calculating RI/J V-Matrix + Cholesky decomp.... done (  0.0 sec)
Calculating Nuclear repulsion               ... done (  0.0 sec) ENN=   1580.904723859703 Eh

SHARK setup successfully completed in   0.3 seconds

Maximum memory used throughout the entire GTOINT-calculation: 26.6 MB


           ************************************************************
           *        Program running with 48 parallel MPI-processes    *
           *              working on a common directory               *
           ************************************************************

Diagonalization of the overlap matrix:
Smallest eigenvalue                        ... 1.975e-05
Time for diagonalization                   ...    0.028 sec
Threshold for overlap eigenvalues          ... 1.000e-08
Number of eigenvalues below threshold      ... 0
Time for construction of square roots      ...    0.033 sec
Total time needed                          ...    0.063 sec

Time for model grid setup =    0.429 sec

Loading Hartree-Fock densities                     ... done
Calculating cut-offs                               ... done
Initializing the effective Hamiltonian             ... done
Setting up the integral package (SHARK)            ... done
Starting the Coulomb interaction                   ... done (   0.1 sec)
Reading the grid                                   ... done
Mapping shells                                     ... done
Starting the XC term evaluation                    ... done (   0.1 sec)
  promolecular density results
     # of electrons  =    143.993627658
     EX              =   -127.506975016
     EC              =     -4.911248101
     EX+EC           =   -132.418223117
Transforming the Hamiltonian                       ... done (   0.0 sec)
Diagonalizing the Hamiltonian                      ... done (   0.0 sec)
Back transforming the eigenvectors                 ... done (   0.0 sec)
Now organizing SCF variables                       ... done
-------------------
DFT GRID GENERATION
-------------------

General Integration Accuracy     IntAcc      ... 4.388
Radial Grid Type                 RadialGrid  ... OptM3 with GC (2021)
Angular Grid (max. ang.)         AngularGrid ... 4 (Lebedev-302)
Angular grid pruning method      GridPruning ... 4 (adaptive)
Weight generation scheme         WeightScheme... Becke
Basis function cutoff            BFCut       ... 1.0000e-11
Integration weight cutoff        WCut        ... 1.0000e-14
Angular grids for H and He will be reduced by one unit
Partially contracted basis set               ... off
Rotationally invariant grid construction     ... off

Total number of grid points                  ...   152449
Total number of batches                      ...     2399
Average number of points per batch           ...       63
Average number of grid points per atom       ...     5082
Time for grid setup =    1.104 sec


--------------------
CPCM SOLVATION MODEL
--------------------
CPCM parameters:
  Epsilon                                         ...      78.3550
  Refrac                                          ...       1.3328
  Rsolv                                           ...       1.3000
  Surface type                                    ... GAUSSIAN VDW
  Epsilon function type                           ...         CPCM
Solvent:                                     ... WATER
SMD-CDS solvent descriptors:
  Soln                                       ...    1.3328
  Soln25                                     ...    1.3323
  Sola                                       ...    0.0000
  Solb                                       ...    0.0000
  Solg                                       ...    0.0000
  Solc                                       ...    0.0000
  Solh                                       ...    0.0000
Radii:
 Radius for C  used is    3.4960 Bohr (=   1.8500 Ang.)
 Radius for O  used is    2.8724 Bohr (=   1.5200 Ang.)
 Radius for N  used is    3.5716 Bohr (=   1.8900 Ang.)
 Radius for F  used is    3.2692 Bohr (=   1.7300 Ang.)
 Radius for H  used is    2.2677 Bohr (=   1.2000 Ang.)
Calculating surface                               ...        done! (  0.0s)
GEPOL surface points                              ...         1720
GEPOL Volume                                      ...    1721.0414
GEPOL Surface-area                                ...     973.6705
Calculating surface distance matrix               ...        done! (  0.0s)
Performing Cholesky decomposition & store         ...        done! (  0.3s)
Overall time for CPCM initialization              ...                 0.3s
--------------
SCF ITERATIONS
--------------
ITER       Energy         Delta-E        Max-DP      RMS-DP      [F,P]     Damp
               ***  Starting incremental Fock matrix formation  ***
  0  -1043.7485643846   0.000000000000 0.06570827  0.00145825  0.2666446 0.7000
  1  -1043.9496162816  -0.201051897017 0.05541269  0.00102687  0.0987039 0.7000
                               ***Turning on DIIS***
  2  -1044.0238141713  -0.074197889676 0.09322064  0.00182652  0.0325061 0.0000
  3  -1044.1474782604  -0.123664089105 0.04892088  0.00074494  0.0446892 0.0000
  4  -1044.1719275676  -0.024449307283 0.01243160  0.00029488  0.0182574 0.0000
  5  -1044.1739125279  -0.001984960223 0.00961020  0.00016432  0.0068426 0.0000
                      *** Initiating the SOSCF procedure ***
                           *** Shutting down DIIS ***
                      *** Re-Reading the Fockian *** 
                      *** Removing any level shift *** 
ITER      Energy       Delta-E        Grad      Rot      Max-DP    RMS-DP
  6  -1044.17401774  -0.0001052092  0.000323  0.000323  0.002343  0.000062
               *** Restarting incremental Fock matrix formation ***
  7  -1044.17403029  -0.0000125544  0.000194  0.000874  0.001239  0.000040
  8  -1044.17402614   0.0000041502  0.000439  0.000521  0.000694  0.000012
  9  -1044.17403285  -0.0000067050  0.000034  0.000096  0.000347  0.000006
 10  -1044.17403269   0.0000001578  0.000052  0.000070  0.000177  0.000003
 11  -1044.17403293  -0.0000002388  0.000007  0.000047  0.000082  0.000002
 12  -1044.17403293  -0.0000000057  0.000012  0.000030  0.000036  0.000001
 13  -1044.17403295  -0.0000000137  0.000003  0.000014  0.000060  0.000001
 14  -1044.17403293   0.0000000169  0.000005  0.000010  0.000025  0.000000
                  ***Gradient check signals convergence***
              ***Rediagonalizing the Fockian in SOSCF/NRSCF***

               *****************************************************
               *                     SUCCESS                       *
               *           SCF CONVERGED AFTER  15 CYCLES          *
               *****************************************************


SMD CDS free energy correction energy :                 7.89148     Kcal/mol
Total Energy after SMD CDS correction =             -1044.161457079 Eh
Total Energy       :        -1044.16145708 Eh          -28413.07774 eV
  Last Energy change         ...   -1.6664e-08  Tolerance :   1.0000e-08
  Last MAX-Density change    ...    5.0347e-05  Tolerance :   1.0000e-07
             **** THE GBW FILE WAS UPDATED (opt_4.gbw) ****
             **** DENSITY opt_4.scfp WAS UPDATED ****
             **** ENERGY FILE WAS UPDATED (opt_4.en.tmp) ****
             **** THE GBW FILE WAS UPDATED (opt_4.gbw) ****
             **** DENSITY opt_4.scfp WAS UPDATED ****
----------------
ORBITAL ENERGIES
----------------

  NO   OCC          E(Eh)            E(eV) 
   0   2.0000     -24.523284      -667.3125 
   1   2.0000     -24.521410      -667.2615 
   2   2.0000     -24.517014      -667.1419 
   3   2.0000     -19.007470      -517.2196 
   4   2.0000     -18.951714      -515.7023 
   5   2.0000     -14.198140      -386.3510 
   6   2.0000     -10.284592      -279.8580 
   7   2.0000     -10.178920      -276.9825 
   8   2.0000     -10.096392      -274.7368 
   9   2.0000     -10.093289      -274.6524 
  10   2.0000     -10.066438      -273.9217 
  11   2.0000     -10.059440      -273.7313 
  12   2.0000     -10.048588      -273.4360 
  13   2.0000     -10.048445      -273.4321 
  14   2.0000     -10.044812      -273.3332 
  15   2.0000     -10.044567      -273.3266 
  16   2.0000     -10.043341      -273.2932 
  17   2.0000     -10.042464      -273.2693 
  18   2.0000     -10.041630      -273.2467 
  19   2.0000     -10.036564      -273.1088 
  20   2.0000      -1.277514       -34.7629 
  21   2.0000      -1.189950       -32.3802 
  22   2.0000      -1.183837       -32.2139 
  23   2.0000      -1.081356       -29.4252 
  24   2.0000      -0.997432       -27.1415 
  25   2.0000      -0.938522       -25.5385 
  26   2.0000      -0.847592       -23.0641 
  27   2.0000      -0.828321       -22.5398 
  28   2.0000      -0.760665       -20.6988 
  29   2.0000      -0.743801       -20.2399 
  30   2.0000      -0.737720       -20.0744 
  31   2.0000      -0.705469       -19.1968 
  32   2.0000      -0.672116       -18.2892 
  33   2.0000      -0.627933       -17.0869 
  34   2.0000      -0.611652       -16.6439 
  35   2.0000      -0.601229       -16.3603 
  36   2.0000      -0.588894       -16.0246 
  37   2.0000      -0.579876       -15.7792 
  38   2.0000      -0.556976       -15.1561 
  39   2.0000      -0.554586       -15.0910 
  40   2.0000      -0.546419       -14.8688 
  41   2.0000      -0.520839       -14.1728 
  42   2.0000      -0.496363       -13.5067 
  43   2.0000      -0.475850       -12.9485 
  44   2.0000      -0.467542       -12.7225 
  45   2.0000      -0.452278       -12.3071 
  46   2.0000      -0.441794       -12.0218 
  47   2.0000      -0.438253       -11.9255 
  48   2.0000      -0.432260       -11.7624 
  49   2.0000      -0.431631       -11.7453 
  50   2.0000      -0.426968       -11.6184 
  51   2.0000      -0.414089       -11.2679 
  52   2.0000      -0.410671       -11.1749 
  53   2.0000      -0.404140       -10.9972 
  54   2.0000      -0.394374       -10.7315 
  55   2.0000      -0.385222       -10.4824 
  56   2.0000      -0.382248       -10.4015 
  57   2.0000      -0.376282       -10.2391 
  58   2.0000      -0.373260       -10.1569 
  59   2.0000      -0.370246       -10.0749 
  60   2.0000      -0.354566        -9.6482 
  61   2.0000      -0.346483        -9.4283 
  62   2.0000      -0.335336        -9.1250 
  63   2.0000      -0.332475        -9.0471 
  64   2.0000      -0.325844        -8.8667 
  65   2.0000      -0.311626        -8.4798 
  66   2.0000      -0.301605        -8.2071 
  67   2.0000      -0.271101        -7.3770 
  68   2.0000      -0.254624        -6.9287 
  69   2.0000      -0.252634        -6.8745 
  70   2.0000      -0.246786        -6.7154 
  71   2.0000      -0.194454        -5.2914 
  72   0.0000      -0.079310        -2.1581 
  73   0.0000      -0.057120        -1.5543 
  74   0.0000      -0.046799        -1.2735 
  75   0.0000      -0.021755        -0.5920 
  76   0.0000       0.000724         0.0197 
  77   0.0000       0.058762         1.5990 
  78   0.0000       0.080509         2.1908 
  79   0.0000       0.083078         2.2607 
  80   0.0000       0.089769         2.4427 
  81   0.0000       0.092983         2.5302 
  82   0.0000       0.102117         2.7787 
  83   0.0000       0.106186         2.8895 
  84   0.0000       0.108157         2.9431 
  85   0.0000       0.124508         3.3880 
  86   0.0000       0.134059         3.6479 
  87   0.0000       0.135949         3.6993 
  88   0.0000       0.138193         3.7604 
  89   0.0000       0.146678         3.9913 
  90   0.0000       0.148583         4.0431 
  91   0.0000       0.159732         4.3465 
  92   0.0000       0.161792         4.4026 
  93   0.0000       0.173516         4.7216 
  94   0.0000       0.181890         4.9495 
  95   0.0000       0.185622         5.0510 
  96   0.0000       0.191291         5.2053 
  97   0.0000       0.197747         5.3810 
  98   0.0000       0.201728         5.4893 
  99   0.0000       0.207913         5.6576 
 100   0.0000       0.211588         5.7576 
 101   0.0000       0.214008         5.8235 
 102   0.0000       0.218475         5.9450 
 103   0.0000       0.225508         6.1364 
 104   0.0000       0.228725         6.2239 
 105   0.0000       0.238462         6.4889 
 106   0.0000       0.242605         6.6016 
 107   0.0000       0.242812         6.6072 
 108   0.0000       0.251202         6.8356 
 109   0.0000       0.254120         6.9150 
 110   0.0000       0.260287         7.0828 
 111   0.0000       0.265941         7.2366 
 112   0.0000       0.269390         7.3305 
 113   0.0000       0.276311         7.5188 
 114   0.0000       0.285341         7.7645 
 115   0.0000       0.287771         7.8307 
 116   0.0000       0.292362         7.9556 
 117   0.0000       0.293146         7.9769 
 118   0.0000       0.300080         8.1656 
 119   0.0000       0.307574         8.3695 
 120   0.0000       0.314326         8.5532 
 121   0.0000       0.322866         8.7856 
 122   0.0000       0.328960         8.9515 
 123   0.0000       0.335139         9.1196 
 124   0.0000       0.338041         9.1986 
 125   0.0000       0.348959         9.4957 
 126   0.0000       0.353291         9.6135 
 127   0.0000       0.364969         9.9313 
 128   0.0000       0.371002        10.0955 
 129   0.0000       0.373975        10.1764 
 130   0.0000       0.380630        10.3575 
 131   0.0000       0.387712        10.5502 
 132   0.0000       0.395930        10.7738 
 133   0.0000       0.403703        10.9853 
 134   0.0000       0.409005        11.1296 
 135   0.0000       0.423562        11.5257 
 136   0.0000       0.433056        11.7841 
 137   0.0000       0.437511        11.9053 
 138   0.0000       0.444723        12.1015 
 139   0.0000       0.455871        12.4049 
 140   0.0000       0.459389        12.5006 
 141   0.0000       0.470060        12.7910 
 142   0.0000       0.477138        12.9836 
 143   0.0000       0.484500        13.1839 
 144   0.0000       0.489938        13.3319 
 145   0.0000       0.492897        13.4124 
 146   0.0000       0.499817        13.6007 
 147   0.0000       0.504486        13.7278 
 148   0.0000       0.513905        13.9841 
 149   0.0000       0.528850        14.3907 
 150   0.0000       0.533575        14.5193 
 151   0.0000       0.539556        14.6821 
 152   0.0000       0.540268        14.7014 
 153   0.0000       0.547102        14.8874 
 154   0.0000       0.555015        15.1027 
 155   0.0000       0.561859        15.2890 
 156   0.0000       0.564583        15.3631 
 157   0.0000       0.571727        15.5575 
 158   0.0000       0.580077        15.7847 
 159   0.0000       0.583514        15.8782 
 160   0.0000       0.585426        15.9303 
 161   0.0000       0.602530        16.3957 
 162   0.0000       0.603899        16.4329 
 163   0.0000       0.612185        16.6584 
 164   0.0000       0.617493        16.8028 
 165   0.0000       0.620150        16.8751 
 166   0.0000       0.635077        17.2813 
 167   0.0000       0.643751        17.5174 
 168   0.0000       0.646095        17.5811 
 169   0.0000       0.649682        17.6787 
 170   0.0000       0.654649        17.8139 
 171   0.0000       0.664975        18.0949 
 172   0.0000       0.669070        18.2063 
 173   0.0000       0.675428        18.3793 
 174   0.0000       0.683305        18.5937 
 175   0.0000       0.686477        18.6800 
 176   0.0000       0.693789        18.8790 
 177   0.0000       0.699115        19.0239 
 178   0.0000       0.707509        19.2523 
 179   0.0000       0.712561        19.3898 
 180   0.0000       0.719293        19.5729 
 181   0.0000       0.725267        19.7355 
 182   0.0000       0.744908        20.2700 
 183   0.0000       0.755603        20.5610 
 184   0.0000       0.759594        20.6696 
 185   0.0000       0.770756        20.9733 
 186   0.0000       0.774539        21.0763 
 187   0.0000       0.780639        21.2423 
 188   0.0000       0.793602        21.5950 
 189   0.0000       0.801421        21.8078 
 190   0.0000       0.808844        22.0098 
 191   0.0000       0.819630        22.3033 
 192   0.0000       0.835605        22.7380 
 193   0.0000       0.848417        23.0866 
 194   0.0000       0.864031        23.5115 
 195   0.0000       0.873172        23.7602 
 196   0.0000       0.886890        24.1335 
 197   0.0000       0.897486        24.4218 
 198   0.0000       0.909975        24.7617 
 199   0.0000       0.922427        25.1005 
 200   0.0000       0.936204        25.4754 
 201   0.0000       0.944381        25.6979 
 202   0.0000       0.951312        25.8865 
 203   0.0000       0.966217        26.2921 
 204   0.0000       0.976486        26.5715 
 205   0.0000       0.995381        27.0857 
 206   0.0000       1.004271        27.3276 
 207   0.0000       1.023428        27.8489 
 208   0.0000       1.035662        28.1818 
 209   0.0000       1.044454        28.4210 
 210   0.0000       1.056590        28.7513 
 211   0.0000       1.075911        29.2770 
 212   0.0000       1.086148        29.5556 
 213   0.0000       1.102441        29.9989 
 214   0.0000       1.122767        30.5520 
 215   0.0000       1.140439        31.0329 
 216   0.0000       1.165632        31.7185 
 217   0.0000       1.179359        32.0920 
 218   0.0000       1.194320        32.4991 
 219   0.0000       1.212598        32.9965 
 220   0.0000       1.224887        33.3309 
 221   0.0000       1.236829        33.6558 
 222   0.0000       1.246145        33.9093 
 223   0.0000       1.274387        34.6778 
 224   0.0000       1.285134        34.9703 
 225   0.0000       1.291397        35.1407 
 226   0.0000       1.302420        35.4407 
 227   0.0000       1.322216        35.9793 
 228   0.0000       1.322893        35.9978 
 229   0.0000       1.330797        36.2128 
 230   0.0000       1.338741        36.4290 
 231   0.0000       1.350728        36.7552 
 232   0.0000       1.368039        37.2262 
 233   0.0000       1.371211        37.3126 
 234   0.0000       1.380081        37.5539 
 235   0.0000       1.382685        37.6248 
 236   0.0000       1.386560        37.7302 
 237   0.0000       1.392696        37.8972 
 238   0.0000       1.406844        38.2822 
 239   0.0000       1.417932        38.5839 
 240   0.0000       1.425862        38.7997 
 241   0.0000       1.431923        38.9646 
 242   0.0000       1.446183        39.3526 
 243   0.0000       1.454505        39.5791 
 244   0.0000       1.456556        39.6349 
 245   0.0000       1.463024        39.8109 
 246   0.0000       1.468209        39.9520 
 247   0.0000       1.470121        40.0040 
 248   0.0000       1.476260        40.1711 
 249   0.0000       1.486914        40.4610 
 250   0.0000       1.492351        40.6089 
 251   0.0000       1.496169        40.7128 
 252   0.0000       1.497970        40.7618 
 253   0.0000       1.507402        41.0185 
 254   0.0000       1.522791        41.4372 
 255   0.0000       1.527106        41.5547 
 256   0.0000       1.528813        41.6011 
 257   0.0000       1.535175        41.7742 
 258   0.0000       1.541896        41.9571 
 259   0.0000       1.547476        42.1090 
 260   0.0000       1.563086        42.5337 
 261   0.0000       1.569994        42.7217 
 262   0.0000       1.579666        42.9849 
 263   0.0000       1.582770        43.0694 
 264   0.0000       1.598322        43.4925 
 265   0.0000       1.599872        43.5347 
 266   0.0000       1.617811        44.0229 
 267   0.0000       1.621756        44.1302 
 268   0.0000       1.629828        44.3499 
 269   0.0000       1.633900        44.4607 
 270   0.0000       1.652217        44.9591 
 271   0.0000       1.661471        45.2109 
 272   0.0000       1.671932        45.4956 
 273   0.0000       1.678349        45.6702 
 274   0.0000       1.700489        46.2726 
 275   0.0000       1.715180        46.6724 
 276   0.0000       1.721003        46.8309 
 277   0.0000       1.727913        47.0189 
 278   0.0000       1.749662        47.6107 
 279   0.0000       1.763616        47.9904 
 280   0.0000       1.777129        48.3581 
 281   0.0000       1.778075        48.3839 
 282   0.0000       1.784565        48.5605 
 283   0.0000       1.826915        49.7129 
 284   0.0000       1.841138        50.0999 
 285   0.0000       1.884609        51.2828 
 286   0.0000       1.901025        51.7295 
 287   0.0000       1.915617        52.1266 
 288   0.0000       1.939166        52.7674 
 289   0.0000       1.963101        53.4187 
 290   0.0000       1.970112        53.6095 
 291   0.0000       1.975814        53.7646 
 292   0.0000       2.007764        54.6340 
 293   0.0000       2.012173        54.7540 
 294   0.0000       2.035905        55.3998 
 295   0.0000       2.044796        55.6417 
 296   0.0000       2.049513        55.7701 
 297   0.0000       2.062126        56.1133 
 298   0.0000       2.071463        56.3674 
 299   0.0000       2.078755        56.5658 
 300   0.0000       2.081156        56.6311 
 301   0.0000       2.083298        56.6894 
 302   0.0000       2.095337        57.0170 
 303   0.0000       2.103442        57.2376 
 304   0.0000       2.108153        57.3658 
 305   0.0000       2.127040        57.8797 
 306   0.0000       2.129042        57.9342 
 307   0.0000       2.157863        58.7184 
 308   0.0000       2.187588        59.5273 
 309   0.0000       2.210302        60.1454 
 310   0.0000       2.217598        60.3439 
 311   0.0000       2.229153        60.6583 
 312   0.0000       2.231640        60.7260 
 313   0.0000       2.247114        61.1471 
 314   0.0000       2.250973        61.2521 
 315   0.0000       2.254786        61.3558 
 316   0.0000       2.262288        61.5600 
 317   0.0000       2.272573        61.8399 
 318   0.0000       2.285236        62.1844 
 319   0.0000       2.291241        62.3478 
 320   0.0000       2.298106        62.5346 
 321   0.0000       2.302822        62.6630 
 322   0.0000       2.316161        63.0259 
 323   0.0000       2.320320        63.1391 
 324   0.0000       2.335930        63.5639 
 325   0.0000       2.343324        63.7651 
 326   0.0000       2.354252        64.0625 
 327   0.0000       2.358543        64.1792 
 328   0.0000       2.361607        64.2626 
 329   0.0000       2.370589        64.5070 
 330   0.0000       2.376787        64.6757 
 331   0.0000       2.383160        64.8491 
 332   0.0000       2.391341        65.0717 
 333   0.0000       2.396217        65.2044 
 334   0.0000       2.408420        65.5364 
 335   0.0000       2.420085        65.8539 
 336   0.0000       2.428125        66.0726 
 337   0.0000       2.441806        66.4449 
 338   0.0000       2.458120        66.8888 
 339   0.0000       2.474196        67.3263 
 340   0.0000       2.497073        67.9488 
 341   0.0000       2.506701        68.2108 
 342   0.0000       2.507280        68.2265 
 343   0.0000       2.515415        68.4479 
 344   0.0000       2.547993        69.3344 
 345   0.0000       2.567199        69.8570 
 346   0.0000       2.589819        70.4726 
 347   0.0000       2.621597        71.3373 
 348   0.0000       2.630601        71.5823 
 349   0.0000       2.642885        71.9166 
 350   0.0000       2.657858        72.3240 
 351   0.0000       2.667339        72.5820 
 352   0.0000       2.686533        73.1043 
 353   0.0000       2.703214        73.5582 
 354   0.0000       2.706571        73.6495 
 355   0.0000       2.717608        73.9499 
 356   0.0000       2.730675        74.3054 
 357   0.0000       2.740753        74.5797 
 358   0.0000       2.752121        74.8890 
 359   0.0000       2.761666        75.1487 
 360   0.0000       2.792087        75.9766 
 361   0.0000       2.803540        76.2882 
 362   0.0000       2.817949        76.6803 
 363   0.0000       2.830196        77.0136 
 364   0.0000       2.838979        77.2525 
 365   0.0000       2.851487        77.5929 
 366   0.0000       2.864725        77.9531 
 367   0.0000       2.895719        78.7965 
 368   0.0000       2.931226        79.7627 
 369   0.0000       2.933884        79.8350 
 370   0.0000       2.966511        80.7229 
 371   0.0000       2.971930        80.8703 
 372   0.0000       2.983594        81.1877 
 373   0.0000       2.988405        81.3186 
 374   0.0000       2.997610        81.5691 
 375   0.0000       3.059195        83.2449 
 376   0.0000       3.083263        83.8999 
 377   0.0000       3.105962        84.5175 
 378   0.0000       3.110607        84.6439 
 379   0.0000       3.129718        85.1640 
 380   0.0000       3.139038        85.4176 
 381   0.0000       3.160878        86.0119 
 382   0.0000       3.179199        86.5104 
 383   0.0000       3.186800        86.7172 
 384   0.0000       3.216698        87.5308 
 385   0.0000       3.228940        87.8639 
 386   0.0000       3.241566        88.2075 
 387   0.0000       3.252755        88.5120 
 388   0.0000       3.258552        88.6697 
 389   0.0000       3.263059        88.7924 
 390   0.0000       3.267385        88.9101 
 391   0.0000       3.287031        89.4447 
 392   0.0000       3.293847        89.6301 
 393   0.0000       3.300094        89.8001 
 394   0.0000       3.310876        90.0935 
 395   0.0000       3.321778        90.3902 
 396   0.0000       3.325617        90.4946 
 397   0.0000       3.331256        90.6481 
 398   0.0000       3.340407        90.8971 
 399   0.0000       3.345445        91.0342 
 400   0.0000       3.356080        91.3236 
 401   0.0000       3.364305        91.5474 
 402   0.0000       3.385741        92.1307 
 403   0.0000       3.397639        92.4545 
 404   0.0000       3.411576        92.8337 
 405   0.0000       3.419959        93.0618 
 406   0.0000       3.430463        93.3477 
 407   0.0000       3.441300        93.6425 
 408   0.0000       3.448784        93.8462 
 409   0.0000       3.462495        94.2193 
 410   0.0000       3.464154        94.2644 
 411   0.0000       3.476387        94.5973 
 412   0.0000       3.481246        94.7295 
 413   0.0000       3.494128        95.0801 
 414   0.0000       3.519895        95.7812 
 415   0.0000       3.537464        96.2593 
 416   0.0000       3.562992        96.9539 
 417   0.0000       3.602929        98.0407 
 418   0.0000       3.609022        98.2065 
 419   0.0000       3.622651        98.5774 
 420   0.0000       3.640026        99.0501 
 421   0.0000       3.653988        99.4301 
 422   0.0000       3.685887       100.2981 
 423   0.0000       3.721329       101.2625 
 424   0.0000       3.738166       101.7207 
 425   0.0000       3.770594       102.6031 
 426   0.0000       3.813992       103.7840 
 427   0.0000       3.877427       105.5102 
 428   0.0000       4.004451       108.9667 
 429   0.0000       4.098138       111.5160 
 430   0.0000       4.106718       111.7495 
 431   0.0000       4.129635       112.3731 
 432   0.0000       4.159171       113.1768 
 433   0.0000       4.181724       113.7905 
 434   0.0000       4.269194       116.1707 
 435   0.0000       4.413836       120.1066 
 436   0.0000       4.510021       122.7239 
 437   0.0000       4.591391       124.9381 
 438   0.0000       4.707054       128.0854 
 439   0.0000       4.811496       130.9275 
 440   0.0000      21.480053       584.5020 
 441   0.0000      21.507173       585.2399 
 442   0.0000      21.916444       596.3768 
 443   0.0000      21.976273       598.0048 
 444   0.0000      22.043650       599.8382 
 445   0.0000      22.111312       601.6794 
 446   0.0000      22.115354       601.7894 
 447   0.0000      22.198404       604.0493 
 448   0.0000      22.236158       605.0766 
 449   0.0000      22.252646       605.5253 
 450   0.0000      22.268434       605.9549 
 451   0.0000      22.353344       608.2654 
 452   0.0000      22.373769       608.8212 
 453   0.0000      22.419002       610.0521 
 454   0.0000      32.092988       873.2946 
 455   0.0000      43.729475      1189.9395 
 456   0.0000      43.773881      1191.1479 
 457   0.0000      57.212007      1556.8179 
 458   0.0000      57.227824      1557.2483 
 459   0.0000      57.327611      1559.9636 
Total SCF time: 0 days 0 hours 1 min 15 sec 

Maximum memory used throughout the entire SCF-calculation: 86.8 MB


-------------------------------------------------------------------------------
                          DFT DISPERSION CORRECTION                            
                                                                               
                                 DFTD4 V2.5                                    
-------------------------------------------------------------------------------
Starting D4
-------------------------   ----------------
Dispersion correction           -0.014470297
-------------------------   ----------------

------------------   -----------------
gCP correction             0.016928815
------------------   -----------------

-------------------------   --------------------
FINAL SINGLE POINT ENERGY     -1044.158998561672
-------------------------   --------------------



           ************************************************************
           *        Program running with 48 parallel MPI-processes    *
           *              working on a common directory               *
           ************************************************************
------------------------------------------------------------------------------
                         ORCA SCF GRADIENT CALCULATION
------------------------------------------------------------------------------

Gradient of the Kohn-Sham DFT energy:
Kohn-Sham wavefunction type      ... RKS
Hartree-Fock exchange scaling    ...    0.000
Number of operators              ...    1
Number of atoms                  ...   30
Basis set dimensions             ...  460
Integral neglect threshold       ... 2.5e-11
Integral primitive cutoff        ... 2.5e-12
SHARK Integral package           ... ON

Nuc. rep. gradient       (SHARK) ... done (  0.0 sec)
HCore & Overlap gradient (SHARK) ... done (  0.1 sec)
RI-J gradient            (SHARK) ... done (  0.2 sec)
Exchange-correlation gradient    ... done
Dispersion correction            ... Starting D4
Starting D4
Starting D4
Starting D4
Starting D4
Starting D4
Starting D4
Starting D4
Starting D4
Starting D4
Starting D4
Starting D4
Starting D4
Starting D4
Starting D4
Starting D4
Starting D4
Starting D4
Starting D4
Starting D4
Starting D4
Starting D4
Starting D4
Starting D4
Starting D4
Starting D4
Starting D4
Starting D4
Starting D4
Starting D4
Starting D4
Starting D4
Starting D4
Starting D4
Starting D4
Starting D4
Starting D4
Starting D4
Starting D4
Starting D4
Starting D4
Starting D4
Starting D4
Starting D4
Starting D4
Starting D4
Starting D4


------------------- 
Dispersion Gradient 
------------------- 
   1  :    0.000095977    0.000116257   -0.000001755
   2  :    0.000085916    0.000101662    0.000067283
   3  :    0.000087231    0.000073846    0.000127036
   4  :    0.000090016    0.000027161    0.000070426
   5  :    0.000106419    0.000031179   -0.000050871
   6  :    0.000105509    0.000094032   -0.000070263
   7  :    0.000096358   -0.000041223   -0.000147072
   8  :    0.000061367   -0.000001927   -0.000175327
   9  :    0.000107149   -0.000107934   -0.000079720
  10  :    0.000045858   -0.000059715    0.000135534
  11  :   -0.000034367   -0.000080681    0.000093043
  12  :   -0.000058971   -0.000128795    0.000108702
  13  :   -0.000091564   -0.000124796    0.000063932
  14  :   -0.000127225   -0.000080342    0.000015263
  15  :   -0.000156784   -0.000005845   -0.000016320
  16  :   -0.000090815   -0.000000588    0.000021875
  17  :   -0.000112684    0.000048152   -0.000048383
  18  :   -0.000069587    0.000011770   -0.000047409
  19  :   -0.000067043    0.000077298   -0.000012315
  20  :   -0.000063818    0.000055882   -0.000084627
  21  :    0.000026550    0.000038920   -0.000008598
  22  :    0.000021768    0.000031369    0.000027023
  23  :    0.000020265    0.000018504    0.000062563
  24  :    0.000028269    0.000030161   -0.000047848
  25  :    0.000033538   -0.000052567   -0.000048048
  26  :    0.000012426   -0.000019242    0.000053170
  27  :   -0.000006182   -0.000052381    0.000045712
  28  :   -0.000024466   -0.000044723    0.000017554
  29  :   -0.000044313   -0.000024854   -0.000008378
  30  :   -0.000039449    0.000038622   -0.000016032

  |G| =    0.005404399

Starting D4
done
gCP correction                   ... done

------------------
CARTESIAN GRADIENT
------------------

   1   C   :   -0.000697741   -0.000783491    0.002380752
   2   C   :   -0.000424612    0.000531842    0.000858804
   3   C   :    0.000632434    0.000546171   -0.002043266
   4   C   :   -0.001188938    0.000317458    0.000518378
   5   C   :    0.002103813    0.000656125    0.001924986
   6   C   :    0.002671157    0.001385922    0.000136428
   7   C   :   -0.007189396   -0.008738937   -0.009223433
   8   O   :    0.003557682    0.000341112    0.008788079
   9   O   :   -0.000453752    0.014465158    0.003589357
  10   N   :   -0.005989812    0.000609635   -0.005367359
  11   C   :    0.007254519   -0.000410935    0.001869771
  12   C   :   -0.001783057    0.000749012   -0.000687709
  13   C   :    0.000835574   -0.002203550    0.000479046
  14   C   :    0.002529419   -0.002133694    0.003107074
  15   C   :    0.000926817    0.000505895    0.001857791
  16   C   :   -0.000198701   -0.001117537   -0.000011175
  17   C   :    0.006578123   -0.005874462    0.002077792
  18   F   :    0.005025983    0.008760054    0.000522095
  19   F   :   -0.000093932   -0.004902241   -0.007897626
  20   F   :   -0.010469452    0.000914562    0.005224848
  21   H   :   -0.003483143   -0.004405870    0.001729392
  22   H   :   -0.002057904   -0.002849417   -0.004091617
  23   H   :    0.001764777    0.001152571   -0.005129881
  24   H   :   -0.001980984   -0.001589349    0.004497570
  25   H   :    0.002052088   -0.003925777    0.001289480
  26   H   :   -0.000733413    0.000587551   -0.001452081
  27   H   :   -0.003549229    0.003336362   -0.003603572
  28   H   :    0.001913694    0.005349046   -0.002444697
  29   H   :    0.004180038    0.002264725    0.001119368
  30   H   :   -0.001694704   -0.003568740    0.000027553

Difference to translation invariance:
           :    0.0000373481   -0.0000307981    0.0000461487

Difference to rotation invariance:
           :    0.0003259848   -0.0005673250   -0.0001512045

Norm of the cartesian gradient     ...    0.0371998949
RMS gradient                       ...    0.0039212132
MAX gradient                       ...    0.0144651578

-------
TIMINGS
-------

Total SCF gradient time            ...        3.729 sec

One electron gradient       ....       0.055 sec  (  1.5%)
RI-J Coulomb gradient       ....       0.247 sec  (  6.6%)
XC gradient                 ....       1.834 sec  ( 49.2%)
CPCM gradient               ....       0.263 sec  (  7.1%)
   A-Matrix (El+Nuc)        ....       0.113 sec  (  3.0%)
   Potential                ....       0.150 sec  (  4.0%)

Maximum memory used throughout the entire SCFGRAD-calculation: 51.3 MB
------------------------------------------------------------------------------
                         ORCA GEOMETRY RELAXATION STEP
------------------------------------------------------------------------------

Reading the OPT-File                    .... done
Getting information on internals        .... done
Copying old internal coords+grads       .... done
Making the new internal coordinates     .... (new redundants).... done
Validating the new internal coordinates .... (new redundants).... done
Calculating the B-matrix                .... done
Calculating the G,G- and P matrices     .... done
Transforming gradient to internals      .... done
Projecting the internal gradient        .... done
Number of atoms                         ....  30
Number of internal coordinates          .... 148
Current Energy                          .... -1044.158998562 Eh
Current gradient norm                   ....     0.037199895 Eh/bohr
Maximum allowed component of the step   ....  0.300
Current trust radius                    ....  0.300
Evaluating the initial hessian          ....  (Almloef) done
Projecting the Hessian                  .... done
Forming the augmented Hessian           .... done
Diagonalizing the augmented Hessian     .... done
Last element of RFO vector              ....  0.973865443
Lowest eigenvalues of augmented Hessian:
 -0.005243508  0.013223824  0.013408263  0.020353142  0.021746765
Length of the computed step             ....  0.233220860
The final length of the internal step   ....  0.233220860
Converting the step to cartesian space:
 Initial RMS(Int)=    0.0191706366
Transforming coordinates:
 Iter   0:  RMS(Cart)=    0.1578811996 RMS(Int)=    0.0195369096
 Iter   1:  RMS(Cart)=    0.0059554533 RMS(Int)=    0.0026386890
 Iter   2:  RMS(Cart)=    0.0005701197 RMS(Int)=    0.0001487892
 Iter   3:  RMS(Cart)=    0.0000508776 RMS(Int)=    0.0000327821
 Iter   4:  RMS(Cart)=    0.0000058470 RMS(Int)=    0.0000029638
 Iter   5:  RMS(Cart)=    0.0000006756 RMS(Int)=    0.0000005708
 Iter   6:  RMS(Cart)=    0.0000000907 RMS(Int)=    0.0000000612
done
Storing new coordinates                 .... done

                                .--------------------.
          ----------------------|Geometry convergence|-------------------------
          Item                value                   Tolerance       Converged
          ---------------------------------------------------------------------
          RMS gradient        0.0036338526            0.0001000000      NO
          MAX gradient        0.0113468399            0.0003000000      NO
          RMS step            0.0191706366            0.0020000000      NO
          MAX step            0.0950131453            0.0040000000      NO
          ........................................................
          Max(Bonds)      0.0104      Max(Angles)    1.22
          Max(Dihed)        5.44      Max(Improp)    0.00
          ---------------------------------------------------------------------

The optimization has not yet converged - more geometry cycles are needed


    ---------------------------------------------------------------------------
                         Redundant Internal Coordinates
                            (Angstroem and degrees)

        Definition                    Value    dE/dq     Step     New-Value
    ----------------------------------------------------------------------------
     1. B(C   1,C   0)                1.3880 -0.006039  0.0050    1.3930   
     2. B(C   2,C   1)                1.3808 -0.005684  0.0046    1.3854   
     3. B(C   3,C   2)                1.3949 -0.004822  0.0041    1.3991   
     4. B(C   4,C   3)                1.4049 -0.009650  0.0086    1.4135   
     5. B(C   5,C   4)                1.3944 -0.005259  0.0045    1.3989   
     6. B(C   5,C   0)                1.3812 -0.004720  0.0038    1.3850   
     7. B(C   6,C   4)                1.4853 -0.003779  0.0045    1.4898   
     8. B(O   7,C   6)                1.2137 -0.008847  0.0044    1.2180   
     9. B(O   8,C   6)                1.3354 -0.009401  0.0072    1.3426   
    10. B(N   9,C   3)                1.3920 -0.006600  0.0062    1.3983   
    11. B(C  10,N   9)                1.3848 -0.011347  0.0104    1.3953   
    12. B(C  11,C  10)                1.3993 -0.004551  0.0039    1.4032   
    13. B(C  12,C  11)                1.3791 -0.006393  0.0052    1.3843   
    14. B(C  13,C  12)                1.3872 -0.006234  0.0052    1.3924   
    15. B(C  14,C  13)                1.3870 -0.004092  0.0034    1.3904   
    16. B(C  15,C  14)                1.3870 -0.006000  0.0049    1.3919   
    17. B(C  15,C  10)                1.3945 -0.004026  0.0034    1.3979   
    18. B(C  16,C  14)                1.4943 -0.001123  0.0014    1.4956   
    19. B(F  17,C  16)                1.3453 -0.007805  0.0067    1.3520   
    20. B(F  18,C  16)                1.3589 -0.007618  0.0069    1.3657   
    21. B(F  19,C  16)                1.3484 -0.009661  0.0084    1.3568   
    22. B(H  20,C   0)                1.0771 -0.005868  0.0081    1.0852   
    23. B(H  21,C   1)                1.0785 -0.005355  0.0074    1.0859   
    24. B(H  22,C   2)                1.0793 -0.005444  0.0076    1.0869   
    25. B(H  23,C   5)                1.0791 -0.004871  0.0068    1.0859   
    26. B(H  24,O   8)                0.9746  0.002901 -0.0031    0.9715   
    27. B(H  25,N   9)                1.0105 -0.001663  0.0020    1.0125   
    28. B(H  26,C  11)                1.0786 -0.006008  0.0083    1.0869   
    29. B(H  27,C  12)                1.0769 -0.006130  0.0085    1.0854   
    30. B(H  28,C  13)                1.0773 -0.004751  0.0066    1.0839   
    31. B(H  29,C  15)                1.0798 -0.003770  0.0053    1.0851   
    32. A(C   5,C   0,H  20)          120.00 -0.000533    0.08    120.08   
    33. A(C   1,C   0,H  20)          120.56 -0.000285    0.04    120.60   
    34. A(C   1,C   0,C   5)          119.44  0.000820   -0.12    119.32   
    35. A(C   0,C   1,C   2)          120.36 -0.000670    0.08    120.44   
    36. A(C   2,C   1,H  21)          119.70  0.001019   -0.15    119.55   
    37. A(C   0,C   1,H  21)          119.93 -0.000346    0.07    119.99   
    38. A(C   1,C   2,C   3)          120.90 -0.000326    0.04    120.94   
    39. A(C   1,C   2,H  22)          119.95 -0.000740    0.12    120.07   
    40. A(C   3,C   2,H  22)          119.14  0.001069   -0.17    118.98   
    41. A(C   2,C   3,C   4)          118.63  0.000629   -0.08    118.55   
    42. A(C   4,C   3,N   9)          121.91 -0.007804    1.04    122.95   
    43. A(C   2,C   3,N   9)          119.43  0.007185   -0.98    118.46   
    44. A(C   3,C   4,C   5)          119.66  0.000984   -0.14    119.52   
    45. A(C   5,C   4,C   6)          116.93  0.005490   -0.79    116.14   
    46. A(C   3,C   4,C   6)          123.39 -0.006444    0.87    124.26   
    47. A(C   0,C   5,C   4)          120.83 -0.001412    0.19    121.02   
    48. A(C   4,C   5,H  23)          117.86 -0.000912    0.15    118.01   
    49. A(C   0,C   5,H  23)          121.29  0.002343   -0.37    120.92   
    50. A(C   4,C   6,O   8)          117.21 -0.004978    0.62    117.83   
    51. A(O   7,C   6,O   8)          119.77  0.006393   -0.81    118.96   
    52. A(C   4,C   6,O   7)          122.95 -0.001388    0.12    123.06   
    53. A(C   6,O   8,H  24)          113.41  0.006126   -0.93    112.49   
    54. A(C   3,N   9,C  10)          125.71 -0.005432    0.69    126.40   
    55. A(C  10,N   9,H  25)          114.84  0.003085   -0.57    114.27   
    56. A(C   3,N   9,H  25)          115.08  0.002246   -0.43    114.65   
    57. A(N   9,C  10,C  11)          118.71  0.002719   -0.36    118.34   
    58. A(C  11,C  10,C  15)          118.73 -0.000270    0.02    118.76   
    59. A(N   9,C  10,C  15)          122.56 -0.002444    0.33    122.88   
    60. A(C  12,C  11,H  26)          119.90 -0.000921    0.14    120.04   
    61. A(C  10,C  11,H  26)          119.26  0.000291   -0.05    119.21   
    62. A(C  10,C  11,C  12)          120.84  0.000630   -0.08    120.76   
    63. A(C  13,C  12,H  27)          119.44 -0.000390    0.06    119.50   
    64. A(C  11,C  12,H  27)          119.91  0.001275   -0.20    119.71   
    65. A(C  11,C  12,C  13)          120.65 -0.000884    0.14    120.78   
    66. A(C  14,C  13,H  28)          120.34 -0.001929    0.28    120.62   
    67. A(C  12,C  13,H  28)          121.16  0.000364   -0.08    121.08   
    68. A(C  12,C  13,C  14)          118.50  0.001565   -0.20    118.29   
    69. A(C  15,C  14,C  16)          117.51  0.000398   -0.05    117.46   
    70. A(C  13,C  14,C  16)          120.80  0.000618   -0.08    120.71   
    71. A(C  13,C  14,C  15)          121.67 -0.001017    0.13    121.80   
    72. A(C  14,C  15,H  29)          119.23 -0.000810    0.13    119.36   
    73. A(C  10,C  15,H  29)          121.20  0.000832   -0.13    121.07   
    74. A(C  10,C  15,C  14)          119.57 -0.000019   -0.01    119.56   
    75. A(F  18,C  16,F  19)          104.96 -0.007434    1.05    106.01   
    76. A(F  17,C  16,F  19)          105.89 -0.007995    0.95    106.83   
    77. A(C  14,C  16,F  19)          113.61  0.008232   -1.22    112.39   
    78. A(F  17,C  16,F  18)          105.30 -0.007820    1.21    106.51   
    79. A(C  14,C  16,F  18)          112.30  0.005045   -0.60    111.70   
    80. A(C  14,C  16,F  17)          113.98  0.007257   -1.01    112.97   
    81. D(C   2,C   1,C   0,H  20)    178.29 -0.000146    0.41    178.71   
    82. D(H  21,C   1,C   0,H  20)     -0.47 -0.000284    0.52      0.06   
    83. D(C   2,C   1,C   0,C   5)     -2.26  0.000104   -0.09     -2.35   
    84. D(H  21,C   1,C   0,C   5)    178.98 -0.000034    0.02    179.00   
    85. D(H  22,C   2,C   1,C   0)   -178.07 -0.000363    0.49   -177.58   
    86. D(H  22,C   2,C   1,H  21)      0.69 -0.000242    0.38      1.08   
    87. D(C   3,C   2,C   1,C   0)      1.04 -0.000080    0.05      1.08   
    88. D(C   3,C   2,C   1,H  21)    179.80  0.000041   -0.06    179.74   
    89. D(N   9,C   3,C   2,H  22)     -0.09  0.000355   -0.84     -0.92   
    90. D(N   9,C   3,C   2,C   1)   -179.20  0.000091   -0.40   -179.60   
    91. D(C   4,C   3,C   2,H  22)   -178.35  0.000141   -0.23   -178.57   
    92. D(C   4,C   3,C   2,C   1)      2.54 -0.000124    0.21      2.75   
    93. D(C   6,C   4,C   3,C   2)    173.36  0.001564   -2.92    170.44   
    94. D(C   5,C   4,C   3,N   9)    176.90 -0.000213    0.24    177.15   
    95. D(C   5,C   4,C   3,C   2)     -4.88  0.000286   -0.42     -5.30   
    96. D(C   6,C   4,C   3,N   9)     -4.85  0.001066   -2.26     -7.11   
    97. D(H  23,C   5,C   4,C   6)      3.89 -0.000486    1.31      5.20   
    98. D(C   0,C   5,C   4,C   6)   -174.61 -0.001329    2.71   -171.91   
    99. D(C   0,C   5,C   4,C   3)      3.74 -0.000334    0.39      4.14   
   100. D(H  23,C   5,C   0,H  20)      0.85 -0.000402    0.79      1.65   
   101. D(H  23,C   5,C   0,C   1)   -178.60 -0.000652    1.29   -177.30   
   102. D(H  23,C   5,C   4,C   3)   -177.75  0.000509   -1.00   -178.75   
   103. D(C   4,C   5,C   0,H  20)    179.31  0.000418   -0.64    178.67   
   104. D(C   4,C   5,C   0,C   1)     -0.14  0.000169   -0.14     -0.28   
   105. D(O   8,C   6,C   4,C   5)    137.00  0.000950   -1.91    135.09   
   106. D(O   8,C   6,C   4,C   3)    -41.29 -0.000230    0.52    -40.78   
   107. D(O   7,C   6,C   4,C   5)    -39.86  0.000189   -0.39    -40.25   
   108. D(O   7,C   6,C   4,C   3)    141.85 -0.000990    2.04    143.89   
   109. D(H  24,O   8,C   6,O   7)    173.89 -0.000884    0.89    174.78   
   110. D(H  24,O   8,C   6,C   4)     -3.07 -0.001377    2.33     -0.73   
   111. D(C  10,N   9,C   3,C   2)    134.68  0.002558   -4.79    129.89   
   112. D(H  25,N   9,C   3,C   4)    157.70  0.002257   -4.45    153.25   
   113. D(H  25,N   9,C   3,C   2)    -20.50  0.001871   -3.80    -24.30   
   114. D(C  10,N   9,C   3,C   4)    -47.12  0.002944   -5.44    -52.57   
   115. D(C  15,C  10,N   9,H  25)    145.33  0.001480   -2.73    142.60   
   116. D(C  15,C  10,N   9,C   3)     -9.90  0.000969   -1.76    -11.67   
   117. D(C  11,C  10,N   9,H  25)    -33.86  0.001057   -1.95    -35.81   
   118. D(C  11,C  10,N   9,C   3)    170.91  0.000545   -0.98    169.92   
   119. D(H  26,C  11,C  10,C  15)   -178.30  0.000078   -0.14   -178.44   
   120. D(H  26,C  11,C  10,N   9)      0.93  0.000466   -0.89      0.04   
[...]
  92   0.0000       0.160681         4.3724 
  93   0.0000       0.168959         4.5976 
  94   0.0000       0.179044         4.8720 
  95   0.0000       0.182637         4.9698 
  96   0.0000       0.188345         5.1251 
  97   0.0000       0.195322         5.3150 
  98   0.0000       0.197166         5.3652 
  99   0.0000       0.202030         5.4975 
 100   0.0000       0.206076         5.6076 
 101   0.0000       0.210033         5.7153 
 102   0.0000       0.216398         5.8885 
 103   0.0000       0.219904         5.9839 
 104   0.0000       0.227112         6.1800 
 105   0.0000       0.234725         6.3872 
 106   0.0000       0.237368         6.4591 
 107   0.0000       0.239339         6.5127 
 108   0.0000       0.246575         6.7096 
 109   0.0000       0.250925         6.8280 
 110   0.0000       0.257044         6.9945 
 111   0.0000       0.260737         7.0950 
 112   0.0000       0.267140         7.2693 
 113   0.0000       0.272052         7.4029 
 114   0.0000       0.282171         7.6782 
 115   0.0000       0.285014         7.7556 
 116   0.0000       0.287826         7.8321 
 117   0.0000       0.291212         7.9243 
 118   0.0000       0.299588         8.1522 
 119   0.0000       0.305093         8.3020 
 120   0.0000       0.311408         8.4738 
 121   0.0000       0.317262         8.6331 
 122   0.0000       0.324771         8.8375 
 123   0.0000       0.333272         9.0688 
 124   0.0000       0.333687         9.0801 
 125   0.0000       0.340910         9.2766 
 126   0.0000       0.346371         9.4252 
 127   0.0000       0.360564         9.8114 
 128   0.0000       0.366110         9.9624 
 129   0.0000       0.371143        10.0993 
 130   0.0000       0.378635        10.3032 
 131   0.0000       0.383859        10.4453 
 132   0.0000       0.390022        10.6130 
 133   0.0000       0.403268        10.9735 
 134   0.0000       0.405912        11.0454 
 135   0.0000       0.418404        11.3853 
 136   0.0000       0.426716        11.6115 
 137   0.0000       0.435767        11.8578 
 138   0.0000       0.446214        12.1421 
 139   0.0000       0.455681        12.3997 
 140   0.0000       0.462092        12.5742 
 141   0.0000       0.471061        12.8182 
 142   0.0000       0.472803        12.8656 
 143   0.0000       0.484076        13.1724 
 144   0.0000       0.485387        13.2081 
 145   0.0000       0.489851        13.3295 
 146   0.0000       0.492333        13.3971 
 147   0.0000       0.505328        13.7507 
 148   0.0000       0.509853        13.8738 
 149   0.0000       0.521603        14.1935 
 150   0.0000       0.522642        14.2218 
 151   0.0000       0.536549        14.6002 
 152   0.0000       0.541210        14.7271 
 153   0.0000       0.542567        14.7640 
 154   0.0000       0.552966        15.0470 
 155   0.0000       0.556643        15.1470 
 156   0.0000       0.562478        15.3058 
 157   0.0000       0.567514        15.4428 
 158   0.0000       0.574852        15.6425 
 159   0.0000       0.579866        15.7790 
 160   0.0000       0.584303        15.8997 
 161   0.0000       0.591012        16.0823 
 162   0.0000       0.601630        16.3712 
 163   0.0000       0.605006        16.4631 
 164   0.0000       0.613943        16.7062 
 165   0.0000       0.623745        16.9730 
 166   0.0000       0.629811        17.1380 
 167   0.0000       0.634380        17.2624 
 168   0.0000       0.641036        17.4435 
 169   0.0000       0.647952        17.6317 
 170   0.0000       0.656854        17.8739 
 171   0.0000       0.661181        17.9917 
 172   0.0000       0.666559        18.1380 
 173   0.0000       0.667293        18.1580 
 174   0.0000       0.671695        18.2777 
 175   0.0000       0.685915        18.6647 
 176   0.0000       0.691735        18.8231 
 177   0.0000       0.696663        18.9572 
 178   0.0000       0.708590        19.2817 
 179   0.0000       0.714062        19.4306 
 180   0.0000       0.717725        19.5303 
 181   0.0000       0.722718        19.6661 
 182   0.0000       0.740605        20.1529 
 183   0.0000       0.750044        20.4097 
 184   0.0000       0.756718        20.5913 
 185   0.0000       0.761536        20.7224 
 186   0.0000       0.771831        21.0026 
 187   0.0000       0.775336        21.0980 
 188   0.0000       0.782108        21.2822 
 189   0.0000       0.794944        21.6315 
 190   0.0000       0.809462        22.0266 
 191   0.0000       0.817134        22.2354 
 192   0.0000       0.842841        22.9349 
 193   0.0000       0.844886        22.9905 
 194   0.0000       0.857875        23.3440 
 195   0.0000       0.870922        23.6990 
 196   0.0000       0.885377        24.0923 
 197   0.0000       0.896014        24.3818 
 198   0.0000       0.912147        24.8208 
 199   0.0000       0.917148        24.9569 
 200   0.0000       0.924082        25.1455 
 201   0.0000       0.935007        25.4428 
 202   0.0000       0.951204        25.8836 
 203   0.0000       0.961493        26.1636 
 204   0.0000       0.978187        26.6178 
 205   0.0000       0.981778        26.7155 
 206   0.0000       0.997852        27.1529 
 207   0.0000       1.008662        27.4471 
 208   0.0000       1.028468        27.9860 
 209   0.0000       1.044326        28.4175 
 210   0.0000       1.054748        28.7012 
 211   0.0000       1.078225        29.3400 
 212   0.0000       1.090985        29.6872 
 213   0.0000       1.105122        30.0719 
 214   0.0000       1.118316        30.4309 
 215   0.0000       1.133156        30.8348 
 216   0.0000       1.166022        31.7291 
 217   0.0000       1.175834        31.9961 
 218   0.0000       1.190145        32.3855 
 219   0.0000       1.204303        32.7708 
 220   0.0000       1.207808        32.8661 
 221   0.0000       1.225004        33.3341 
 222   0.0000       1.237222        33.6665 
 223   0.0000       1.262388        34.3513 
 224   0.0000       1.278256        34.7831 
 225   0.0000       1.283772        34.9332 
 226   0.0000       1.297395        35.3039 
 227   0.0000       1.318103        35.8674 
 228   0.0000       1.318651        35.8823 
 229   0.0000       1.329433        36.1757 
 230   0.0000       1.336488        36.3677 
 231   0.0000       1.347958        36.6798 
 232   0.0000       1.352816        36.8120 
 233   0.0000       1.364008        37.1166 
 234   0.0000       1.366618        37.1876 
 235   0.0000       1.374761        37.4091 
 236   0.0000       1.381378        37.5892 
 237   0.0000       1.382919        37.6311 
 238   0.0000       1.392221        37.8843 
 239   0.0000       1.403903        38.2021 
 240   0.0000       1.419676        38.6313 
 241   0.0000       1.426160        38.8078 
 242   0.0000       1.437391        39.1134 
 243   0.0000       1.443120        39.2693 
 244   0.0000       1.453899        39.5626 
 245   0.0000       1.458537        39.6888 
 246   0.0000       1.460469        39.7414 
 247   0.0000       1.465151        39.8688 
 248   0.0000       1.477534        40.2057 
 249   0.0000       1.481455        40.3124 
 250   0.0000       1.488625        40.5076 
 251   0.0000       1.490697        40.5639 
 252   0.0000       1.495286        40.6888 
 253   0.0000       1.497516        40.7495 
 254   0.0000       1.514856        41.2213 
 255   0.0000       1.521052        41.3899 
 256   0.0000       1.528681        41.5975 
 257   0.0000       1.531606        41.6771 
 258   0.0000       1.538047        41.8524 
 259   0.0000       1.542087        41.9623 
 260   0.0000       1.549249        42.1572 
 261   0.0000       1.565588        42.6018 
 262   0.0000       1.570503        42.7356 
 263   0.0000       1.577767        42.9332 
 264   0.0000       1.582790        43.0699 
 265   0.0000       1.590079        43.2682 
 266   0.0000       1.597983        43.4833 
 267   0.0000       1.610284        43.8181 
 268   0.0000       1.623019        44.1646 
 269   0.0000       1.628173        44.3048 
 270   0.0000       1.639081        44.6017 
 271   0.0000       1.647125        44.8205 
 272   0.0000       1.662107        45.2282 
 273   0.0000       1.673439        45.5366 
 274   0.0000       1.695813        46.1454 
 275   0.0000       1.708802        46.4989 
 276   0.0000       1.716627        46.7118 
 277   0.0000       1.725017        46.9401 
 278   0.0000       1.746692        47.5299 
 279   0.0000       1.754628        47.7459 
 280   0.0000       1.756216        47.7891 
 281   0.0000       1.776653        48.3452 
 282   0.0000       1.788981        48.6806 
 283   0.0000       1.807636        49.1883 
 284   0.0000       1.819503        49.5112 
 285   0.0000       1.853122        50.4260 
 286   0.0000       1.882427        51.2235 
 287   0.0000       1.899531        51.6889 
 288   0.0000       1.913738        52.0755 
 289   0.0000       1.933213        52.6054 
 290   0.0000       1.967407        53.5359 
 291   0.0000       1.981757        53.9263 
 292   0.0000       2.005433        54.5706 
 293   0.0000       2.006879        54.6100 
 294   0.0000       2.029694        55.2308 
 295   0.0000       2.032535        55.3081 
 296   0.0000       2.038823        55.4792 
 297   0.0000       2.056508        55.9604 
 298   0.0000       2.063299        56.1452 
 299   0.0000       2.069705        56.3195 
 300   0.0000       2.074492        56.4498 
 301   0.0000       2.082780        56.6753 
 302   0.0000       2.088076        56.8194 
 303   0.0000       2.091997        56.9261 
 304   0.0000       2.095372        57.0180 
 305   0.0000       2.110682        57.4346 
 306   0.0000       2.128312        57.9143 
 307   0.0000       2.152593        58.5750 
 308   0.0000       2.176326        59.2208 
 309   0.0000       2.206630        60.0455 
 310   0.0000       2.212445        60.2037 
 311   0.0000       2.226143        60.5764 
 312   0.0000       2.232287        60.7436 
 313   0.0000       2.238451        60.9114 
 314   0.0000       2.243143        61.0390 
 315   0.0000       2.246902        61.1413 
 316   0.0000       2.255298        61.3698 
 317   0.0000       2.266295        61.6690 
 318   0.0000       2.273544        61.8663 
 319   0.0000       2.283480        62.1367 
 320   0.0000       2.288099        62.2623 
 321   0.0000       2.292815        62.3907 
 322   0.0000       2.304253        62.7019 
 323   0.0000       2.311795        62.9071 
 324   0.0000       2.325430        63.2782 
 325   0.0000       2.334903        63.5359 
 326   0.0000       2.338960        63.6464 
 327   0.0000       2.342619        63.7459 
 328   0.0000       2.348404        63.9033 
 329   0.0000       2.358199        64.1699 
 330   0.0000       2.366393        64.3928 
 331   0.0000       2.368305        64.4449 
 332   0.0000       2.379991        64.7629 
 333   0.0000       2.383050        64.8461 
 334   0.0000       2.395305        65.1796 
 335   0.0000       2.398515        65.2669 
 336   0.0000       2.419855        65.8476 
 337   0.0000       2.431251        66.1577 
 338   0.0000       2.444731        66.5245 
 339   0.0000       2.451503        66.7088 
 340   0.0000       2.478754        67.4503 
 341   0.0000       2.484578        67.6088 
 342   0.0000       2.487947        67.7005 
 343   0.0000       2.499398        68.0121 
 344   0.0000       2.537988        69.0622 
 345   0.0000       2.549968        69.3882 
 346   0.0000       2.577796        70.1454 
 347   0.0000       2.599701        70.7414 
 348   0.0000       2.627331        71.4933 
 349   0.0000       2.638674        71.8020 
 350   0.0000       2.643343        71.9290 
 351   0.0000       2.659430        72.3668 
 352   0.0000       2.676527        72.8320 
 353   0.0000       2.691657        73.2437 
 354   0.0000       2.692102        73.2558 
 355   0.0000       2.707038        73.6622 
 356   0.0000       2.715094        73.8815 
 357   0.0000       2.724283        74.1315 
 358   0.0000       2.746211        74.7282 
 359   0.0000       2.753976        74.9395 
 360   0.0000       2.772901        75.4545 
 361   0.0000       2.786764        75.8317 
 362   0.0000       2.809310        76.4452 
 363   0.0000       2.810622        76.4809 
 364   0.0000       2.824443        76.8570 
 365   0.0000       2.839131        77.2567 
 366   0.0000       2.841883        77.3316 
 367   0.0000       2.877353        78.2968 
 368   0.0000       2.919888        79.4542 
 369   0.0000       2.926979        79.6471 
 370   0.0000       2.950356        80.2833 
 371   0.0000       2.960632        80.5629 
 372   0.0000       2.970054        80.8193 
 373   0.0000       2.977418        81.0196 
 374   0.0000       2.994710        81.4902 
 375   0.0000       3.044053        82.8329 
 376   0.0000       3.069178        83.5166 
 377   0.0000       3.098888        84.3250 
 378   0.0000       3.110210        84.6331 
 379   0.0000       3.128246        85.1239 
 380   0.0000       3.147523        85.6485 
 381   0.0000       3.149379        85.6990 
 382   0.0000       3.175994        86.4232 
 383   0.0000       3.188191        86.7551 
 384   0.0000       3.205595        87.2287 
 385   0.0000       3.224087        87.7319 
 386   0.0000       3.237665        88.1013 
 387   0.0000       3.242515        88.2333 
 388   0.0000       3.253204        88.5242 
 389   0.0000       3.255530        88.5875 
 390   0.0000       3.263854        88.8140 
 391   0.0000       3.273783        89.0842 
 392   0.0000       3.280761        89.2740 
 393   0.0000       3.291451        89.5649 
 394   0.0000       3.299247        89.7771 
 395   0.0000       3.305072        89.9356 
 396   0.0000       3.321657        90.3869 
 397   0.0000       3.323863        90.4469 
 398   0.0000       3.329692        90.6055 
 399   0.0000       3.343021        90.9682 
 400   0.0000       3.348239        91.1102 
 401   0.0000       3.353505        91.2535 
 402   0.0000       3.363185        91.5169 
 403   0.0000       3.389007        92.2196 
 404   0.0000       3.403915        92.6252 
 405   0.0000       3.414483        92.9128 
 406   0.0000       3.419495        93.0492 
 407   0.0000       3.429976        93.3344 
 408   0.0000       3.437462        93.5381 
 409   0.0000       3.450098        93.8819 
 410   0.0000       3.452406        93.9448 
 411   0.0000       3.470486        94.4367 
 412   0.0000       3.481085        94.7251 
 413   0.0000       3.492408        95.0332 
 414   0.0000       3.513283        95.6013 
 415   0.0000       3.526259        95.9544 
 416   0.0000       3.546178        96.4964 
 417   0.0000       3.587556        97.6223 
 418   0.0000       3.594363        97.8076 
 419   0.0000       3.608180        98.1836 
 420   0.0000       3.639687        99.0409 
 421   0.0000       3.654615        99.4471 
 422   0.0000       3.688242       100.3622 
 423   0.0000       3.698052       100.6291 
 424   0.0000       3.718049       101.1733 
 425   0.0000       3.754974       102.1780 
 426   0.0000       3.797514       103.3356 
 427   0.0000       3.863429       105.1292 
 428   0.0000       3.979640       108.2915 
 429   0.0000       4.076009       110.9138 
 430   0.0000       4.088479       111.2532 
 431   0.0000       4.111965       111.8923 
 432   0.0000       4.146926       112.8436 
 433   0.0000       4.168688       113.4358 
 434   0.0000       4.270982       116.2193 
 435   0.0000       4.387944       119.4020 
 436   0.0000       4.461758       121.4106 
 437   0.0000       4.600233       125.1787 
 438   0.0000       4.691802       127.6704 
 439   0.0000       4.795974       130.5051 
 440   0.0000      21.476726       584.4114 
 441   0.0000      21.480550       584.5155 
 442   0.0000      21.899527       595.9164 
 443   0.0000      21.947813       597.2304 
 444   0.0000      22.026014       599.3583 
 445   0.0000      22.079652       600.8179 
 446   0.0000      22.092030       601.1547 
 447   0.0000      22.169842       603.2721 
 448   0.0000      22.204131       604.2051 
 449   0.0000      22.237993       605.1266 
 450   0.0000      22.246619       605.3613 
 451   0.0000      22.294784       606.6719 
 452   0.0000      22.342391       607.9674 
 453   0.0000      22.372756       608.7936 
 454   0.0000      32.101748       873.5330 
 455   0.0000      43.712337      1189.4732 
 456   0.0000      43.758805      1190.7376 
 457   0.0000      57.190561      1556.2343 
 458   0.0000      57.208511      1556.7227 
 459   0.0000      57.308653      1559.4477 
Total SCF time: 0 days 0 hours 0 min 23 sec 

Maximum memory used throughout the entire SCF-calculation: 87.4 MB


-------------------------------------------------------------------------------
                          DFT DISPERSION CORRECTION                            
                                                                               
                                 DFTD4 V2.5                                    
-------------------------------------------------------------------------------
Starting D4
-------------------------   ----------------
Dispersion correction           -0.014253087
-------------------------   ----------------

------------------   -----------------
gCP correction             0.017113715
------------------   -----------------

-------------------------   --------------------
FINAL SINGLE POINT ENERGY     -1044.161752772451
-------------------------   --------------------

                                *** OPTIMIZATION RUN DONE ***

                            ***************************************
                            *     ORCA property calculations      *
                            ***************************************

                                    ---------------------
                                    Active property flags
                                    ---------------------
   (+) Dipole Moment


------------------------------------------------------------------------------
                       ORCA ELECTRIC PROPERTIES CALCULATION
------------------------------------------------------------------------------

Dipole Moment Calculation                       ... on
Quadrupole Moment Calculation                   ... off
Polarizability Calculation                      ... off
GBWName                                         ... opt_4.gbw
Electron density                                ... opt_4.scfp
The origin for moment calculation is the CENTER OF MASS  = ( 0.061999, -0.013527 -0.031473)

-------------
DIPOLE MOMENT
-------------
                                X             Y             Z
Electronic contribution:    -16.12372       2.46907     -10.12072
Nuclear contribution   :     17.56150      -3.10981      14.35180
                        -----------------------------------------
Total Dipole Moment    :      1.43778      -0.64074       4.23109
                        -----------------------------------------
Magnitude (a.u.)       :      4.51440
Magnitude (Debye)      :     11.47470



--------------------
Rotational spectrum 
--------------------
 
Rotational constants in cm-1:     0.017698     0.007961     0.007117 
Rotational constants in MHz :   530.580177   238.677439   213.352532 

 Dipole components along the rotational axes: 
x,y,z [a.u.] :     2.023720     3.616811    -1.789716 
x,y,z [Debye]:     5.143887     9.193204    -4.549096 

 

Timings for individual modules:

Sum of individual times         ...      779.068 sec (=  12.984 min)
GTO integral calculation        ...       20.429 sec (=   0.340 min)   2.6 %
SCF iterations                  ...      697.346 sec (=  11.622 min)  89.5 %
SCF Gradient evaluation         ...       60.425 sec (=   1.007 min)   7.8 %
Geometry relaxation             ...        0.868 sec (=   0.014 min)   0.1 %
                             ****ORCA TERMINATED NORMALLY****
TOTAL RUN TIME: 0 days 0 hours 13 minutes 16 seconds 72 msec
